chemcompute.org
{'UTCtimestamp': '2022-10-29T22:28:04.353441', 'cluster': 'jetstream2', 'clusterJobNumber': '141145', 'status': 'RUNNING', 'nodeList': 'chemcompute-node-0'}
----- GAMESS execution script 'rungms' -----
This job is running on host chemcompute-node-0.novalocal
under operating system Linux at Sat Oct 29 22:28:08 UTC 2022
SLURM has assigned the following compute nodes to this run:
Available scratch disk space (Kbyte units) at beginning of the job is
Filesystem     1K-blocks     Used Available Use% Mounted on
/dev/sda1       62903276 11782088  51121188  19% /
GAMESS temporary binary files will be written to /scratch/141145
GAMESS supplementary output files will be written to /data/slurm/48/483184
Copying input file 483184.inp to your run's scratch directory...
The generated host list is
chemcompute-node-0.novalocal

 Distributed Data Interface kickoff program.
 Initiating 1 compute processes on 1 nodes to run the following command:
 /data/gamess-2019R1-avx2-ddi/gamess.00.x 483184 

          ******************************************************
          *         GAMESS VERSION = 30 JUN 2019 (R1)          *
          *             FROM IOWA STATE UNIVERSITY             *
          * M.W.SCHMIDT, K.K.BALDRIDGE, J.A.BOATZ, S.T.ELBERT, *
          *   M.S.GORDON, J.H.JENSEN, S.KOSEKI, N.MATSUNAGA,   *
          *          K.A.NGUYEN, S.J.SU, T.L.WINDUS,           *
          *       TOGETHER WITH M.DUPUIS, J.A.MONTGOMERY       *
          *         J.COMPUT.CHEM.  14, 1347-1363(1993)        *
          **************** 64 BIT INTEL VERSION ****************

  SINCE 1993, STUDENTS AND POSTDOCS WORKING AT IOWA STATE UNIVERSITY
  AND ALSO IN THEIR VARIOUS JOBS AFTER LEAVING ISU HAVE MADE IMPORTANT
  CONTRIBUTIONS TO THE CODE:
     IVANA ADAMOVIC, CHRISTINE AIKENS, YURI ALEXEEV, POOJA ARORA,
     ANDREY ASADCHEV, ROB BELL, PRADIPTA BANDYOPADHYAY, JONATHAN BENTZ,
     COLLEEN BERTONI, BRETT BODE, KURT BRORSEN, CALEB CARLIN, GALINA CHABAN,
     WEI CHEN, CHEOL HO CHOI, PAUL DAY, ALBERT DEFUSCO, NUWAN DESILVA,
     TIM DUDLEY, DMITRI FEDOROV, ALEX FINDLATER, GRAHAM FLETCHER, 
     MARK FREITAG, KURT GLAESEMANN, ANASTASIA GUNINA,
     DAN KEMP, GRANT MERRILL, NORIYUKI MINEZAWA, JONATHAN MULLIN,
     TAKESHI NAGATA, SEAN NEDD, HEATHER NETZLOFF, BOSILJKA NJEGIC, RYAN OLSON,
     MIKE PAK, BUU PHAM,
     SPENCER PRUITT, LUKE ROSKOP, JIM SHOEMAKER, LYUDMILA SLIPCHENKO,
     TONY SMITH, SAROM SOK LEANG, JIE SONG, TETSUYA TAKETSUGU, SIMON WEBB,
     PENG XU, SOOHAENG YOO, FEDERICO ZAHARIEV

  ADDITIONAL CODE HAS BEEN PROVIDED BY COLLABORATORS IN OTHER GROUPS:
     IOWA STATE UNIVERSITY:
          JOE IVANIC, AARON WEST, LAIMUTIS BYTAUTAS, KLAUS RUEDENBERG
     UNIVERSITY OF TOKYO: KIMIHIKO HIRAO, TAKAHITO NAKAJIMA,
          TAKAO TSUNEDA, MUNEAKI KAMIYA, SUSUMU YANAGISAWA,
          KIYOSHI YAGI, MAHITO CHIBA, SEIKEN TOKURA, NAOAKI KAWAKAMI
     UNIVERSITY OF AARHUS: FRANK JENSEN
     UNIVERSITY OF IOWA: VISVALDAS KAIRYS, HUI LI
     NATIONAL INST. OF STANDARDS AND TECHNOLOGY: WALT STEVENS, DAVID GARMER
     UNIVERSITY OF PISA: BENEDETTA MENNUCCI, JACOPO TOMASI
     UNIVERSITY OF MEMPHIS: HENRY KURTZ, PRAKASHAN KORAMBATH
     UNIVERSITY OF ALBERTA: TOBY ZENG, MARIUSZ KLOBUKOWSKI
     UNIVERSITY OF NEW ENGLAND: MARK SPACKMAN
     MIE UNIVERSITY: HIROAKI UMEDA
     NAT. INST. OF ADVANCED INDUSTRIAL SCIENCE AND TECHNOLOGY: KAZUO KITAURA
     MICHIGAN STATE UNIVERSITY:
          KAROL KOWALSKI, MARTA WLOCH, JEFFREY GOUR, JESSE LUTZ,
          WEI LI, JUN SHEN, J. EMILIANO DEUSTUA, PIOTR PIECUCH
     UNIVERSITY OF MINNESOTA:
          YINAN SHU
     UNIVERSITY OF SILESIA: MONIKA MUSIAL, STANISLAW KUCHARSKI
     FACULTES UNIVERSITAIRES NOTRE-DAME DE LA PAIX:
          OLIVIER QUINET, BENOIT CHAMPAGNE
     UNIVERSITY OF CALIFORNIA - SANTA BARBARA: BERNARD KIRTMAN
     INSTITUTE FOR MOLECULAR SCIENCE:
          KAZUYA ISHIMURA, MICHIO KATOUDA, AND SHIGERU NAGASE
     UNIVERSITY OF NOTRE DAME: ANNA POMOGAEVA, DAN CHIPMAN
     KYUSHU UNIVERSITY:
          HARUYUKI NAKANO,
          FENG LONG GU, JACEK KORCHOWIEC, MARCIN MAKOWSKI, AND YURIKO AOKI,
          HIROTOSHI MORI AND EISAKU MIYOSHI
     PENNSYLVANIA STATE UNIVERSITY:
          TZVETELIN IORDANOV, CHET SWALINA, JONATHAN SKONE,
          SHARON HAMMES-SCHIFFER
     WASEDA UNIVERSITY:
          MASATO KOBAYASHI, TOMOKO AKAMA, TSUGUKI TOUMA,
          TAKESHI YOSHIKAWA, YASUHIRO IKABATA, JUNJI SEINO,
          YUYA NAKAJIMA, HIROMI NAKAI
     NANJING UNIVERSITY: SHUHUA LI
     UNIVERSITY OF NEBRASKA:
          PEIFENG SU, DEJUN SI, NANDUN THELLAMUREGE, YALI WANG, HUI LI
     UNIVERSITY OF ZURICH: ROBERTO PEVERATI, KIM BALDRIDGE
     N. COPERNICUS UNIVERSITY AND JACKSON STATE UNIVERSITY:
          MARIA BARYSZ
     UNIVERSITY OF COPENHAGEN: Jimmy Kromann, CASPER STEINMANN
     TOKYO INSTITUTE OF TECHNOLOGY: HIROYA NAKATA
     NAGOYA UNIVERSITY: YOSHIO NISHIMOTO, STEPHAN IRLE
     MOSCOW STATE UNIVERSITY: VLADIMIR MIRONOV
     A.N.NESMEYANOV INSTITUTE OF ORGANOELEMENT COMPOUNDS OF RUSSIAN ACADEMY OF SCIENCES:
          IGOR S. GERASIMOV

 EXECUTION OF GAMESS BEGUN Sat Oct 29 22:28:08 2022

            ECHO OF THE FIRST FEW INPUT CARDS -
 INPUT CARD>!                                                                               
 INPUT CARD>!   GAMESS Calculation input file                                               
 INPUT CARD>!                                                                               
 INPUT CARD>!                                                                               
 INPUT CARD> $CONTRL SCFTYP=RHF MAXIT=200 RUNTYP=OPTIMIZE                                   
 INPUT CARD>         COORD=UNIQUE MULT=1                                                    
 INPUT CARD>         ICHARG=1                                                               
 INPUT CARD>         DFTTYP=B3LYP                                                           
 INPUT CARD>         MOLPLT=.FALSE. PLTORB=.FALSE.  $END                                    
 INPUT CARD> $SYSTEM TIMLIM=2879 MWORDS=250  $END                                           
 INPUT CARD>                                                                                
 INPUT CARD> $STATPT OPTTOL=0.0005 NSTEP=999 $END                                           
 INPUT CARD> $STATPT IHREP=0  $END                                                          
 INPUT CARD>                                                                                
 INPUT CARD> $DFT    METHOD=GRID  NLEB=590  $END                                            
 INPUT CARD>                                                                                
 INPUT CARD> $BASIS  GBASIS=N21 NGAUSS=3 $END                                               
 INPUT CARD>                                                                                
 INPUT CARD> $SCF    DIRSCF=.T. $END                                                        
 INPUT CARD> $GUESS  GUESS=HUCKEL  $END                                                     
 INPUT CARD>                                                                                
 INPUT CARD> $DATA                                                                          
 INPUT CARD>                                                                                
 INPUT CARD>  Cs                                                                            
 INPUT CARD>                                                                                
 INPUT CARD>C     6.0    -0.83     0.22    -0.75                                            
 INPUT CARD>C     6.0    -0.24     1.51    -1.22                                            
 INPUT CARD>C     6.0    -0.29     2.43     0.00                                            
 INPUT CARD>Br   35.0     0.42    -1.04    -0.00                                            
 INPUT CARD>H     1.0    -1.58    -0.27    -1.35                                            
 INPUT CARD>H     1.0    -0.83     1.94    -2.04                                            
 INPUT CARD>H     1.0     0.79     1.41    -1.59                                            
 INPUT CARD>H     1.0    -1.25     2.97     0.00                                            
 INPUT CARD>H     1.0     0.50     3.18     0.00                                            
 INPUT CARD> $END                                                                           
 INPUT CARD>                                                                                
 INPUT CARD>                                                                                
 INPUT CARD>! Customizations after this line are persisted when using Do More Calculations  
  250000000 WORDS OF MEMORY AVAILABLE

     BASIS OPTIONS
     -------------
     GBASIS=N21          IGAUSS=       3      POLAR=NONE    
     NDFUNC=       0     NFFUNC=       0     DIFFSP=       F
     NPFUNC=       0      DIFFS=       F     BASNAM=        


     RUN TITLE
     ---------
                                                                                 

 THE POINT GROUP OF THE MOLECULE IS CS      
 THE ORDER OF THE PRINCIPAL AXIS IS     0

 ATOM      ATOMIC                      COORDINATES (BOHR)
           CHARGE         X                   Y                   Z
 C           6.0    -1.5684725698        0.4157397173        1.4172944908
 C           6.0    -1.5684725698        0.4157397173       -1.4172944908
 C           6.0    -0.4535342371        2.8534862415        2.3054657050
 C           6.0    -0.4535342371        2.8534862415       -2.3054657050
 C           6.0    -0.5480205364        4.5920341502        0.0000000000
 BR         35.0     0.7936849148       -1.9653150272        0.0000000000
 H           1.0    -2.9857670606       -0.5102260167        2.5511300834
 H           1.0    -2.9857670606       -0.5102260167       -2.5511300834
 H           1.0    -1.5684725698        3.6660684162        3.8550410150
 H           1.0    -1.5684725698        3.6660684162       -3.8550410150
 H           1.0     1.4928835303        2.6645136427        3.0046643205
 H           1.0     1.4928835303        2.6645136427       -3.0046643205
 H           1.0    -2.3621574847        5.6124861835        0.0000000000
 H           1.0     0.9448629939        6.0093286410        0.0000000000

          INTERNUCLEAR DISTANCES (ANGS.)
          ------------------------------

                1 C          2 C          3 C          4 C          5 C     

   1 C       0.0000000    1.5000000 *  1.4943560 *  2.4275708 *  2.3954540 *
   2 C       1.5000000 *  0.0000000    2.4275708 *  1.4943560 *  2.3954540 *
   3 C       1.4943560 *  2.4275708 *  0.0000000    2.4400000 *  1.5288231 *
   4 C       2.4275708 *  1.4943560 *  2.4400000 *  0.0000000    1.5288231 *
   5 C       2.3954540 *  2.3954540 *  1.5288231 *  1.5288231 *  0.0000000  
   6 BR      1.9268108 *  1.9268108 *  2.9028434 *  2.9028434 *  3.5418921  
   7 H       1.0782393 *  2.2831119 *  2.2317930 *  3.4013086    3.2827732  
   8 H       2.2831119 *  1.0782393 *  3.4013086    2.2317930 *  3.2827732  
   9 H       2.1500000 *  3.2775753    1.0979071 *  3.3407484    2.1664025 *
  10 H       3.2775753    2.1500000 *  3.3407484    1.0979071 *  2.1664025 *
  11 H       2.1785546 *  3.0848177    1.0989995 *  2.9944949 *  2.1759825 *
  12 H       3.0848177    2.1785546 *  2.9944949 *  1.0989995 *  2.1759825 *
  13 H       2.8812150 *  2.8812150 *  2.1540891 *  2.1540891 *  1.1014536 *
  14 H       3.3306156    3.3306156    2.1965655 *  2.1965655 *  1.0893117 *

                6 BR         7 H          8 H          9 H         10 H     

   1 C       1.9268108 *  1.0782393 *  2.2831119 *  2.1500000 *  3.2775753  
   2 C       1.9268108 *  2.2831119 *  1.0782393 *  3.2775753    2.1500000 *
   3 C       2.9028434 *  2.2317930 *  3.4013086    1.0979071 *  3.3407484  
   4 C       2.9028434 *  3.4013086    2.2317930 *  3.3407484    1.0979071 *
   5 C       3.5418921    3.2827732    3.2827732    2.1664025 *  2.1664025 *
   6 BR      0.0000000    2.5328640 *  2.5328640 *  3.8215834    3.8215834  
   7 H       2.5328640 *  0.0000000    2.7000000 *  2.4336598 *  4.1156652  
   8 H       2.5328640 *  2.7000000 *  0.0000000    4.1156652    2.4336598 *
   9 H       3.8215834    2.4336598 *  4.1156652    0.0000000    4.0800000  
  10 H       3.8215834    4.1156652    2.4336598 *  4.0800000    0.0000000  
  11 H       2.9440618 *  2.9149443 *  4.1331465    1.7628953 *  4.0102618  
  12 H       2.9440618 *  4.1331465    2.9149443 *  4.0102618    1.7628953 *
  13 H       4.3438462    3.5254787    3.5254787    2.3235533 *  2.3235533 *
  14 H       4.2207582    4.2486939    4.2486939    2.7327825 *  2.7327825 *

               11 H         12 H         13 H         14 H     

   1 C       2.1785546 *  3.0848177    2.8812150 *  3.3306156  
   2 C       3.0848177    2.1785546 *  2.8812150 *  3.3306156  
   3 C       1.0989995 *  2.9944949 *  2.1540891 *  2.1965655 *
   4 C       2.9944949 *  1.0989995 *  2.1540891 *  2.1965655 *
   5 C       2.1759825 *  2.1759825 *  1.1014536 *  1.0893117 *
   6 BR      2.9440618 *  2.9440618 *  4.3438462    4.2207582  
   7 H       2.9149443 *  4.1331465    3.5254787    4.2486939  
   8 H       4.1331465    2.9149443 *  3.5254787    4.2486939  
   9 H       1.7628953 *  4.0102618    2.3235533 *  2.7327825 *
  10 H       4.0102618    1.7628953 *  2.3235533 *  2.7327825 *
  11 H       0.0000000    3.1800000    3.0204801    2.3968938 *
  12 H       3.1800000    0.0000000    3.0204801    2.3968938 *
  13 H       3.0204801    3.0204801    0.0000000    1.7625550 *
  14 H       2.3968938 *  2.3968938 *  1.7625550 *  0.0000000  

  * ... LESS THAN  3.000


     ATOMIC BASIS SET
     ----------------
 THE CONTRACTED PRIMITIVE FUNCTIONS HAVE BEEN UNNORMALIZED
 THE CONTRACTED BASIS FUNCTIONS ARE NOW NORMALIZED TO UNITY

  SHELL TYPE  PRIMITIVE        EXPONENT          CONTRACTION COEFFICIENT(S)

 C         

      4   S       1           172.2560000    0.061766907377
      4   S       2            25.9109000    0.358794042852
      4   S       3             5.5333500    0.700713083689

      5   L       4             3.6649800   -0.395895162119    0.236459946619
      5   L       5             0.7705450    1.215834355681    0.860618805716

      6   L       6             0.1958570    1.000000000000    1.000000000000

 C         

     10   S       7           172.2560000    0.061766907377
     10   S       8            25.9109000    0.358794042852
     10   S       9             5.5333500    0.700713083689

     11   L      10             3.6649800   -0.395895162119    0.236459946619
     11   L      11             0.7705450    1.215834355681    0.860618805716

     12   L      12             0.1958570    1.000000000000    1.000000000000

 C         

     13   S      13           172.2560000    0.061766907377
     13   S      14            25.9109000    0.358794042852
     13   S      15             5.5333500    0.700713083689

     14   L      16             3.6649800   -0.395895162119    0.236459946619
     14   L      17             0.7705450    1.215834355681    0.860618805716

     15   L      18             0.1958570    1.000000000000    1.000000000000

 BR        

     16   S      19          6103.2899000    0.062417504532
     16   S      20           923.6974300    0.372041427015
     16   S      21           202.5203100    0.685872849803

     17   L      22           270.6015000   -0.112148696722    0.147751391942
     17   L      23            58.2535700    0.093144507277    0.601055667219
     17   L      24            18.4693300    0.961679371889    0.412870377483

     18   L      25            19.7614200   -0.293870414377    0.025007078757
     18   L      26             6.8217520    0.280266313711    0.486609775809
     18   L      27             2.2916290    0.902035744129    0.582423371046

     19   D      28            33.9650970    0.149666599796
     19   D      29             8.9008312    0.511747499302
     19   D      30             2.4284360    0.575914799215

     20   L      31             2.1312060   -0.651803166543    0.028708331275
     20   L      32             0.4993537    1.336012136394    0.984069543711

     21   L      33             0.1647637    1.000000000000    1.000000000000

 H         

     24   S      34             5.4471780    0.156284978695
     24   S      35             0.8245472    0.904690876670

     25   S      36             0.1831916    1.000000000000

 H         

     28   S      37             5.4471780    0.156284978695
     28   S      38             0.8245472    0.904690876670

     29   S      39             0.1831916    1.000000000000

 H         

     32   S      40             5.4471780    0.156284978695
     32   S      41             0.8245472    0.904690876670

     33   S      42             0.1831916    1.000000000000

 H         

     34   S      43             5.4471780    0.156284978695
     34   S      44             0.8245472    0.904690876670

     35   S      45             0.1831916    1.000000000000

 H         

     36   S      46             5.4471780    0.156284978695
     36   S      47             0.8245472    0.904690876670

     37   S      48             0.1831916    1.000000000000

 TOTAL NUMBER OF BASIS SET SHELLS             =   37
 NUMBER OF CARTESIAN GAUSSIAN BASIS FUNCTIONS =   84
 NUMBER OF ELECTRONS                          =   72
 CHARGE OF MOLECULE                           =    1
 SPIN MULTIPLICITY                            =    1
 NUMBER OF OCCUPIED ORBITALS (ALPHA)          =   36
 NUMBER OF OCCUPIED ORBITALS (BETA )          =   36
 TOTAL NUMBER OF ATOMS                        =   14
 THE NUCLEAR REPULSION ENERGY IS      438.8788886705

 SELECTED MURRAY-HANDY-LAMING RADIAL GRID

 LEGACY BECKE'S FUZZY CELL METHOD

 SELECTED ORIGINAL BECKE'S PARTITION FUNCTION

     LEBEDEV GRID-BASED DFT OPTIONS
     ------------------------------
     DFTTYP=B3LYP   
     NRAD  =      96     NLEB  =     590
     NRAD0 =      24     NLEB0 =     110
     SWOFF =    5.00E-03 (PURE SCF -> DFT)
     SWITCH=    3.00E-04 (COARSE -> TIGHT GRID)
     THRESH=    0.00E+00 GTHRE=    1.00E+00

 GRIMME'S EMPIRICAL DISPERSION CORRECTION= F

     $CONTRL OPTIONS
     ---------------
 SCFTYP=RHF          RUNTYP=OPTIMIZE     EXETYP=RUN     
 MPLEVL=       0     CITYP =NONE         CCTYP =NONE         VBTYP =NONE    
 DFTTYP=B3LYP        TDDFT =NONE    
 MULT  =       1     ICHARG=       1     NZVAR =       0     COORD =UNIQUE  
 PP    =NONE         RELWFN=NONE         LOCAL =NONE         NUMGRD=       F
 ISPHER=      -1     NOSYM =       0     MAXIT =     200     UNITS =ANGS    
 PLTORB=       F     MOLPLT=       F     AIMPAC=       F     FRIEND=        
 NPRINT=       7     IREST =       0     GEOM  =INPUT   
 NORMF =       0     NORMP =       0     ITOL  =      20     ICUT  =       9
 INTTYP=BEST         GRDTYP=BEST         QMTTOL= 1.0E-06

     $SYSTEM OPTIONS
     ---------------
  REPLICATED MEMORY=   250000000 WORDS (ON EVERY NODE).
 DISTRIBUTED MEMDDI=           0 MILLION WORDS IN AGGREGATE,
 MEMDDI DISTRIBUTED OVER   1 PROCESSORS IS           0 WORDS/PROCESSOR.
 TOTAL MEMORY REQUESTED ON EACH PROCESSOR=   250000000 WORDS.
 TIMLIM=        2879.00 MINUTES, OR       2.0 DAYS.
 PARALL= F  BALTYP=  DLB     KDIAG=    0  COREFL= F
 MXSEQ2=     300 MXSEQ3=     150  mem10=         0

          ----------------
          PROPERTIES INPUT
          ----------------

     MOMENTS            FIELD           POTENTIAL          DENSITY
 IEMOM =       1   IEFLD =       0   IEPOT =       0   IEDEN =       0
 WHERE =COMASS     WHERE =NUCLEI     WHERE =NUCLEI     WHERE =NUCLEI  
 OUTPUT=BOTH       OUTPUT=BOTH       OUTPUT=BOTH       OUTPUT=BOTH    
 IEMINT=       0   IEFINT=       0                     IEDINT=       0
                                                       MORB  =       0
          EXTRAPOLATION IN EFFECT
          DIIS IN EFFECT
 ORBITAL PRINTING OPTION: NPREO=     1    84     2     1

     -------------------------------
     INTEGRAL TRANSFORMATION OPTIONS
     -------------------------------
     NWORD  =            0
     CUTOFF = 1.0E-09     MPTRAN =       0
     DIRTRF =       T     AOINTS =DUP     

          ----------------------
          INTEGRAL INPUT OPTIONS
          ----------------------
 NOPK  =       1 NORDER=       0 SCHWRZ=       T

     ------------------------------------------
     THE POINT GROUP IS CS , NAXIS= 0, ORDER= 2
     ------------------------------------------

     DIMENSIONS OF THE SYMMETRY SUBSPACES ARE
 A'  =   52     A'' =   32

 ..... DONE SETTING UP THE RUN .....
 STEP CPU TIME =     0.01 TOTAL CPU TIME =          0.0 (      0.0 MIN)
 TOTAL WALL CLOCK TIME=          0.0 SECONDS, CPU UTILIZATION IS    50.00%


          -----------------------------
          STATIONARY POINT LOCATION RUN
          -----------------------------

 OBTAINING INITIAL HESSIAN, HESS=GUESS   
 CARTESIAN COORDINATE OPTIMIZATION USING BADGER'S RULE FORCE CONSTANT GUESS

          PARAMETERS CONTROLLING GEOMETRY SEARCH ARE
          METHOD =QA                  UPHESS =BFGS    
          NNEG   =         0          NFRZ   =         0
          NSTEP  =       999          IFOLOW =         1
          HESS   =GUESS               RESTAR =         F
          IHREP  =         0          HSSEND =         F
          NPRT   =         0          NPUN   =         0
          OPTTOL = 5.000E-04          RMIN   = 1.500E-03
          RMAX   = 1.000E-01          RLIM   = 7.000E-02
          DXMAX  = 3.000E-01          PURIFY =         F
          MOVIE  =         F          TRUPD  =         T
          TRMAX  = 5.000E-01          TRMIN  = 5.000E-02
          ITBMAT =         5          STPT   =         F
          STSTEP = 1.000E-02          PROJCT=          T

 BEGINNING GEOMETRY SEARCH POINT NSERCH=   0 ...

 COORDINATES OF SYMMETRY UNIQUE ATOMS (ANGS)
   ATOM   CHARGE       X              Y              Z
 ------------------------------------------------------------
 C           6.0  -0.8300000000   0.2200000000  -0.7500000000
 C           6.0  -0.2400000000   1.5100000000  -1.2200000000
 C           6.0  -0.2900000000   2.4300000000   0.0000000000
 BR         35.0   0.4200000000  -1.0400000000   0.0000000000
 H           1.0  -1.5800000000  -0.2700000000  -1.3500000000
 H           1.0  -0.8300000000   1.9400000000  -2.0400000000
 H           1.0   0.7900000000   1.4100000000  -1.5900000000
 H           1.0  -1.2500000000   2.9700000000   0.0000000000
 H           1.0   0.5000000000   3.1800000000   0.0000000000
 COORDINATES OF ALL ATOMS ARE (ANGS)
   ATOM   CHARGE       X              Y              Z
 ------------------------------------------------------------
 C           6.0  -0.8300000000   0.2200000000   0.7500000000
 C           6.0  -0.8300000000   0.2200000000  -0.7500000000
 C           6.0  -0.2400000000   1.5100000000   1.2200000000
 C           6.0  -0.2400000000   1.5100000000  -1.2200000000
 C           6.0  -0.2900000000   2.4300000000   0.0000000000
 BR         35.0   0.4200000000  -1.0400000000   0.0000000000
 H           1.0  -1.5800000000  -0.2700000000   1.3500000000
 H           1.0  -1.5800000000  -0.2700000000  -1.3500000000
 H           1.0  -0.8300000000   1.9400000000   2.0400000000
 H           1.0  -0.8300000000   1.9400000000  -2.0400000000
 H           1.0   0.7900000000   1.4100000000   1.5900000000
 H           1.0   0.7900000000   1.4100000000  -1.5900000000
 H           1.0  -1.2500000000   2.9700000000   0.0000000000
 H           1.0   0.5000000000   3.1800000000   0.0000000000

          ********************
          1 ELECTRON INTEGRALS
          ********************
 ...... END OF ONE-ELECTRON INTEGRALS ......
 STEP CPU TIME =     0.01 TOTAL CPU TIME =          0.0 (      0.0 MIN)
 TOTAL WALL CLOCK TIME=          0.0 SECONDS, CPU UTILIZATION IS    66.67%

          -------------
          GUESS OPTIONS
          -------------
          GUESS =HUCKEL            NORB  =       0          NORDER=       0
          MIX   =       F          PRTMO =       F          PUNMO =       F
          TOLZ  = 1.0E-08          TOLE  = 1.0E-05
          SYMDEN=       F          PURIFY=       F

 INITIAL GUESS ORBITALS GENERATED BY HUCKEL   ROUTINE.
 HUCKEL GUESS REQUIRES     72534 WORDS.

 SYMMETRIES FOR INITIAL GUESS ORBITALS FOLLOW.   BOTH SET(S).
    36 ORBITALS ARE OCCUPIED (   19 CORE ORBITALS).
    20=A'      21=A'      22=A''     23=A'      24=A'      25=A''     26=A'  
    27=A'      28=A''     29=A'      30=A'      31=A''     32=A'      33=A'' 
    34=A''     35=A'      36=A'      37=A''     38=A'      39=A''     40=A'  
    41=A'      42=A'      43=A'      44=A'      45=A'      46=A'  
 ...... END OF INITIAL ORBITAL SELECTION ......
 STEP CPU TIME =     0.05 TOTAL CPU TIME =          0.1 (      0.0 MIN)
 TOTAL WALL CLOCK TIME=          0.1 SECONDS, CPU UTILIZATION IS    70.00%

                    ----------------------
                    AO INTEGRAL TECHNOLOGY
                    ----------------------
     S,P,L SHELL ROTATED AXIS INTEGRALS, REPROGRAMMED BY
        KAZUYA ISHIMURA (IMS) AND JOSE SIERRA (SYNSTAR).
     S,P,D,L SHELL ROTATED AXIS INTEGRALS PROGRAMMED BY
        KAZUYA ISHIMURA (INSTITUTE FOR MOLECULAR SCIENCE).
     S,P,D,F,G SHELL TO TOTAL QUARTET ANGULAR MOMENTUM SUM 5,
        ERIC PROGRAM BY GRAHAM FLETCHER (ELORET AND NASA ADVANCED
        SUPERCOMPUTING DIVISION, AMES RESEARCH CENTER).
     S,P,D,F,G,L SHELL GENERAL RYS QUADRATURE PROGRAMMED BY
        MICHEL DUPUIS (PACIFIC NORTHWEST NATIONAL LABORATORY).

          --------------------
          2 ELECTRON INTEGRALS
          --------------------

 DIRECT SCF METHOD SKIPS INTEGRAL STORAGE ON DISK.
 DIRECT TRANSFORMATION SKIPS AO INTEGRAL STORAGE ON DISK.
  ...... END OF TWO-ELECTRON INTEGRALS .....
 STEP CPU TIME =     0.01 TOTAL CPU TIME =          0.1 (      0.0 MIN)
 TOTAL WALL CLOCK TIME=          0.1 SECONDS, CPU UTILIZATION IS    72.73%

          --------------------------
             R-B3LYP SCF CALCULATION
          --------------------------

     NUCLEAR ENERGY =       438.8788886705
     MAXIT =  200     NPUNCH=    2
     EXTRAP=T  DAMP=F  SHIFT=F  RSTRCT=F  DIIS=T  DEM=F  SOSCF=F
         DENSITY MATRIX CONVERGENCE THRESHOLD=  2.00E-05
     COARSE -> FINE DFT GRID SWITCH THRESHOLD=  3.00E-04 (SWITCH IN $DFT)
                   HF -> DFT SWITCH THRESHOLD=  5.00E-03 (SWOFF IN $DFT)
     MEMORY REQUIRED FOR RHF ITERS=    994661 WORDS.

 DIRECT SCF CALCULATION, SCHWRZ=T   FDIFF=T,  DIRTHR=  0.00E+00 NITDIR=10
 SCHWARZ INEQUALITY OVERHEAD:      3470 INTEGRALS, T=        0.00

 DFT CODE IS SWITCHING FROM THE FINE GRID NRAD= 96,  NLEB=  590
                      TO THE COARSE GRID NRAD0= 24, NLEB0=  110

     EXCHANGE FUNCTIONAL   =B88&HFX   
     CORRELATION FUNCTIONAL=LYP88&VWN5
     DFT THRESHOLD         =.504E-08
     GRID CHANGE THRESHOLD =.300E-03
 FOR AN EULER-MACLAURIN QUADRATURE USING  96 RADIAL POINTS:
 SMALLEST GAUSSIAN PRIMITIVE EXPONENT=        0.1647637000 OF TYPE -P-
 ON ATOM NUMBER   6 HAS RADIAL NORMALIZATION=  1.000000
  LARGEST GAUSSIAN PRIMITIVE EXPONENT=     6103.2899000000 OF TYPE -S-
 ON ATOM NUMBER   6 HAS RADIAL NORMALIZATION=  1.000000
 DFT IS SWITCHED OFF, PERFORMING PURE SCF UNTIL SWOFF THRESHOLD IS REACHED.

                                                                                   NONZERO     BLOCKS
 ITER EX DEM     TOTAL ENERGY        E CHANGE  DENSITY CHANGE    DIIS ERROR      INTEGRALS    SKIPPED
   1  0  0    -2751.8955353997 -2751.8955353997   0.961262864   1.782800346        2577214      32023
          * * *   INITIATING DIIS PROCEDURE   * * *
   2  1  0    -2752.6196376056    -0.7241022059   0.116485856   0.058643379        2575229      33189
   3  2  0    -2752.6522604701    -0.0326228645   0.068434657   0.030746908        2559576      35383
   4  3  0    -2752.6576697594    -0.0054092893   0.013817460   0.011238101        2524654      38025
   5  4  0    -2752.6583482938    -0.0006785344   0.008175611   0.002506285        2489317      40909
   6  5  0    -2752.6584086548    -0.0000603610   0.000657492   0.000451745        2453739      43334
 CONVERGED TO SWOFF, SO DFT CALCULATION IS NOW SWITCHED ON.
          * * *   INITIATING DIIS PROCEDURE   * * *
   7  6  0    -2755.6059719955    -2.9475633407   0.085321806   0.186589373        2577404      31944
   8  7  0    -2755.6209238630    -0.0149518675   0.096528070   0.039010912        2561192      35358
   9  8  0    -2755.6193923802     0.0015314828   0.047388947   0.039234960        2548248      36155
  10  9  0    -2755.6288568298    -0.0094644496   0.008480032   0.005490016        2528610      37680
  11 10  0    -2755.6290357145    -0.0001788847   0.001296063   0.000658672        2460723      43018
  12 11  0    -2755.6290369709    -0.0000012564   0.000496907   0.000282599        2362710      47653
  13 12  0    -2755.6290372892    -0.0000003183   0.000047517   0.000021670        2283696      52023
 DFT CODE IS SWITCHING BACK TO THE FINE GRID
          * * *   INITIATING DIIS PROCEDURE   * * *
  14 13  0    -2755.4849045669     0.1441327223   0.004160677   0.015395027        2577719      31784
  15 14  0    -2755.4850006818    -0.0000961149   0.004442454   0.001428891        2474527      41489
  16 15  0    -2755.4849918157     0.0000088661   0.002241207   0.001902962        2435061      44421
  17 16  0    -2755.4850103724    -0.0000185567   0.000254041   0.000127692        2405178      45910
  18 17  0    -2755.4850104724    -0.0000000999   0.000066436   0.000034809        2258420      53592
  19 18  0    -2755.4850104832    -0.0000000108   0.000006393   0.000004489        2163017      58431
  20 19  0    -2755.4850104833    -0.0000000001   0.000002943   0.000002056        1974411      67246

          -----------------
          DENSITY CONVERGED
          -----------------
     TIME TO FORM FOCK OPERATORS=      12.2 SECONDS (       0.6 SEC/ITER)
     FOCK TIME ON FIRST ITERATION=       0.1, LAST ITERATION=       1.5
     TIME TO SOLVE SCF EQUATIONS=       0.1 SECONDS (       0.0 SEC/ITER)

 FINAL R-B3LYP ENERGY IS    -2755.4850104833 AFTER  20 ITERATIONS
 DFT EXCHANGE + CORRELATION ENERGY =       -97.3514829481
 TOTAL ELECTRON NUMBER             =        72.0000679612

          ------------
          EIGENVECTORS
          ------------

                      1          2          3          4          5
                 -479.8233   -62.3777   -55.9820   -55.9791   -55.9764
                     A'         A'         A'         A''        A'  
    1  C  1  S    0.000030  -0.000005  -0.000235  -0.000197  -0.000024
    2  C  1  S    0.000323  -0.000173  -0.001860  -0.001249  -0.000207
    3  C  1  X    0.000110  -0.000134  -0.000517  -0.000159  -0.000225
    4  C  1  Y   -0.000059   0.000065   0.000172  -0.000056   0.000070
    5  C  1  Z   -0.000160   0.000222   0.000877   0.000080   0.000254
    6  C  1  S   -0.000276  -0.000414   0.000963   0.005717   0.000269
    7  C  1  X   -0.000371   0.000167   0.002193   0.001464   0.000769
    8  C  1  Y   -0.000209   0.000760   0.001393   0.001986   0.000150
    9  C  1  Z    0.000296  -0.000390  -0.001645  -0.003775  -0.000677
   10  C  2  S    0.000030  -0.000005  -0.000235   0.000197  -0.000024
   11  C  2  S    0.000323  -0.000173  -0.001860   0.001249  -0.000207
   12  C  2  X    0.000110  -0.000134  -0.000517   0.000159  -0.000225
   13  C  2  Y   -0.000059   0.000065   0.000172   0.000056   0.000070
   14  C  2  Z    0.000160  -0.000222  -0.000877   0.000080  -0.000254
   15  C  2  S   -0.000276  -0.000414   0.000963  -0.005717   0.000269
   16  C  2  X   -0.000371   0.000167   0.002193  -0.001464   0.000769
   17  C  2  Y   -0.000209   0.000760   0.001393  -0.001986   0.000150
   18  C  2  Z   -0.000296   0.000390   0.001645  -0.003775   0.000677
   19  C  3  S   -0.000027   0.000041   0.000177   0.000070   0.000069
   20  C  3  S   -0.000196   0.000305   0.001227   0.000433   0.000485
   21  C  3  X   -0.000064   0.000090   0.000403   0.000176   0.000136
   22  C  3  Y    0.000049  -0.000116  -0.000228  -0.000018  -0.000236
   23  C  3  Z    0.000049  -0.000122  -0.000272  -0.000126  -0.000173
   24  C  3  S    0.000741  -0.001053  -0.004776  -0.002016  -0.001384
   25  C  3  X    0.000363  -0.000410  -0.002456  -0.000276  -0.000802
   26  C  3  Y   -0.000275   0.000376   0.001615   0.001515   0.000886
   27  C  3  Z   -0.000575   0.001091   0.003339   0.001869   0.001774
   28  C  4  S   -0.000027   0.000041   0.000177  -0.000070   0.000069
   29  C  4  S   -0.000196   0.000305   0.001227  -0.000433   0.000485
   30  C  4  X   -0.000064   0.000090   0.000403  -0.000176   0.000136
   31  C  4  Y    0.000049  -0.000116  -0.000228   0.000018  -0.000236
   32  C  4  Z   -0.000049   0.000122   0.000272  -0.000126   0.000173
   33  C  4  S    0.000741  -0.001053  -0.004776   0.002016  -0.001384
   34  C  4  X    0.000363  -0.000410  -0.002456   0.000276  -0.000802
   35  C  4  Y   -0.000275   0.000376   0.001615  -0.001515   0.000886
   36  C  4  Z    0.000575  -0.001091  -0.003339   0.001869  -0.001774
   37  C  5  S    0.000017  -0.000033  -0.000099   0.000000  -0.000056
   38  C  5  S    0.000080  -0.000170  -0.000441   0.000000  -0.000313
   39  C  5  X    0.000064  -0.000110  -0.000354   0.000000  -0.000097
   40  C  5  Y    0.000032  -0.000050  -0.000236   0.000000  -0.000017
   41  C  5  Z    0.000000   0.000000   0.000000   0.000221   0.000000
   42  C  5  S   -0.000685   0.001318   0.004142   0.000000   0.001904
   43  C  5  X   -0.000504   0.000783   0.003002   0.000000   0.000939
   44  C  5  Y    0.000351  -0.000651  -0.001926   0.000000  -0.001400
   45  C  5  Z    0.000000   0.000000   0.000000  -0.000135   0.000000
   46  BR 6  S    0.983469  -0.330980   0.000688   0.000000  -0.000009
   47  BR 6  S    0.056018   1.020336  -0.002594   0.000000  -0.000065
   48  BR 6  X   -0.000016  -0.001270  -0.680014   0.000000   0.704052
   49  BR 6  Y    0.000024   0.001187   0.703919   0.000000   0.680062
   50  BR 6  Z    0.000000   0.000000   0.000000   0.978834   0.000000
   51  BR 6  S   -0.023842   0.095725  -0.005348   0.000000  -0.001149
   52  BR 6  X    0.000041  -0.000215  -0.039261   0.000000   0.040331
   53  BR 6  Y   -0.000071   0.000255   0.040794   0.000000   0.039108
   54  BR 6  Z    0.000000   0.000000   0.000000   0.056273   0.000000
   55  BR 6 XX    0.004767  -0.021901   0.002384   0.000000   0.000424
   56  BR 6 YY    0.004773  -0.021912   0.002342   0.000000   0.000611
   57  BR 6 ZZ    0.004764  -0.021908   0.002298   0.000000   0.000534
   58  BR 6 XY   -0.000008  -0.000064  -0.000071   0.000000   0.000017
   59  BR 6 XZ    0.000000   0.000000   0.000000  -0.000064   0.000000
   60  BR 6 YZ    0.000000   0.000000   0.000000   0.000044   0.000000
   61  BR 6  S    0.005201  -0.007874  -0.003222   0.000000  -0.000659
   62  BR 6  X   -0.000179   0.000442   0.014287   0.000000  -0.013564
   63  BR 6  Y    0.000294  -0.000625  -0.015374   0.000000  -0.013748
   64  BR 6  Z    0.000000   0.000000   0.000000  -0.019566   0.000000
   65  BR 6  S   -0.002519   0.005768   0.002616   0.000000   0.000189
   66  BR 6  X    0.000178  -0.001048  -0.007378   0.000000   0.006496
   67  BR 6  Y   -0.000263   0.001194   0.007988   0.000000   0.006522
   68  BR 6  Z    0.000000   0.000000   0.000000   0.009228   0.000000
   69  H  7  S   -0.000076   0.000205   0.000366   0.000270  -0.000135
   70  H  7  S   -0.000072   0.000106   0.000583   0.000441   0.001199
   71  H  8  S   -0.000076   0.000205   0.000366  -0.000270  -0.000135
   72  H  8  S   -0.000072   0.000106   0.000583  -0.000441   0.001199
   73  H  9  S    0.000048  -0.000073  -0.000263  -0.000176  -0.000133
   74  H  9  S    0.000204  -0.000391  -0.001262  -0.000516  -0.000781
   75  H 10  S    0.000048  -0.000073  -0.000263   0.000176  -0.000133
   76  H 10  S    0.000204  -0.000391  -0.001262   0.000516  -0.000781
   77  H 11  S   -0.000148   0.000242   0.000751   0.000443   0.000550
   78  H 11  S   -0.000013  -0.000201   0.000655  -0.000631  -0.000737
   79  H 12  S   -0.000148   0.000242   0.000751  -0.000443   0.000550
   80  H 12  S   -0.000013  -0.000201   0.000655   0.000631  -0.000737
   81  H 13  S   -0.000031   0.000043   0.000173   0.000000   0.000052
   82  H 13  S   -0.000201   0.000310   0.001120   0.000000   0.000445
   83  H 14  S    0.000075  -0.000127  -0.000442   0.000000  -0.000175
   84  H 14  S    0.000135  -0.000204  -0.000902   0.000000   0.000032

                      6          7          8          9         10
                  -10.4065   -10.4062   -10.3104   -10.3101   -10.2892
                     A''        A'         A''        A'         A'  
    1  C  1  S    0.697637   0.697659   0.002166   0.003980   0.001605
    2  C  1  S    0.081314   0.080771  -0.001270  -0.002114  -0.001595
    3  C  1  X    0.001251   0.002262   0.000126  -0.000508  -0.000182
    4  C  1  Y   -0.000153  -0.000868   0.000087  -0.000025  -0.001012
    5  C  1  Z   -0.001137  -0.002441  -0.000659   0.000904  -0.000032
    6  C  1  S   -0.084625  -0.052064   0.020516   0.016620   0.001569
    7  C  1  X   -0.006971  -0.010563   0.004739   0.004736   0.000161
    8  C  1  Y   -0.010300  -0.001631   0.011595   0.010355   0.001025
    9  C  1  Z    0.019631   0.001391   0.002825   0.001768   0.000442
   10  C  2  S   -0.697637   0.697659  -0.002166   0.003980   0.001605
   11  C  2  S   -0.081314   0.080771   0.001270  -0.002114  -0.001595
   12  C  2  X   -0.001251   0.002262  -0.000126  -0.000508  -0.000182
   13  C  2  Y    0.000153  -0.000868  -0.000087  -0.000025  -0.001012
   14  C  2  Z   -0.001137   0.002441  -0.000659  -0.000904   0.000032
   15  C  2  S    0.084625  -0.052064  -0.020516   0.016620   0.001569
   16  C  2  X    0.006971  -0.010563  -0.004739   0.004736   0.000161
   17  C  2  Y    0.010300  -0.001631  -0.011595   0.010355   0.001025
   18  C  2  Z    0.019631  -0.001391   0.002825  -0.001768  -0.000442
   19  C  3  S   -0.002519  -0.004523   0.697907   0.697499   0.017801
   20  C  3  S   -0.001774  -0.003363   0.083050   0.081202  -0.000815
   21  C  3  X   -0.000118  -0.000402   0.000158  -0.000542   0.000099
   22  C  3  Y   -0.000469   0.000426  -0.000057  -0.000476   0.000304
   23  C  3  Z   -0.000067   0.000508  -0.001192   0.000202  -0.000258
   24  C  3  S    0.019516   0.017344  -0.077035  -0.076357   0.023100
   25  C  3  X   -0.003868   0.003170   0.001550   0.004845  -0.000977
   26  C  3  Y   -0.008729  -0.009784   0.002376   0.001270   0.008522
   27  C  3  Z   -0.006674  -0.005251   0.008488   0.007846  -0.012191
   28  C  4  S    0.002519  -0.004523  -0.697907   0.697499   0.017801
   29  C  4  S    0.001774  -0.003363  -0.083050   0.081202  -0.000815
   30  C  4  X    0.000118  -0.000402  -0.000158  -0.000542   0.000099
   31  C  4  Y    0.000469   0.000426   0.000057  -0.000476   0.000304
   32  C  4  Z   -0.000067  -0.000508  -0.001192  -0.000202   0.000258
   33  C  4  S   -0.019516   0.017344   0.077035  -0.076357   0.023100
   34  C  4  X    0.003868   0.003170  -0.001550   0.004845  -0.000977
   35  C  4  Y    0.008729  -0.009784  -0.002376   0.001270   0.008522
   36  C  4  Z   -0.006674   0.005251   0.008488  -0.007846   0.012191
   37  C  5  S    0.000000  -0.002603   0.000000  -0.026307   0.986490
   38  C  5  S    0.000000  -0.002616   0.000000  -0.007285   0.115622
   39  C  5  X    0.000000   0.001355   0.000000  -0.000073  -0.000314
   40  C  5  Y    0.000000   0.001366   0.000000  -0.000250  -0.000790
   41  C  5  Z   -0.000963   0.000000   0.000647   0.000000   0.000000
   42  C  5  S    0.000000   0.000901   0.000000   0.040368  -0.104344
   43  C  5  X    0.000000  -0.009174   0.000000  -0.000328   0.001742
   44  C  5  Y    0.000000  -0.002092   0.000000  -0.014245   0.010569
   45  C  5  Z   -0.000117   0.000000   0.016439   0.000000   0.000000
   46  BR 6  S    0.000000  -0.000101   0.000000   0.000045  -0.000002
   47  BR 6  S    0.000000   0.000018   0.000000  -0.000513   0.000091
   48  BR 6  X    0.000000  -0.000160   0.000000   0.000064   0.000009
   49  BR 6  Y    0.000000   0.000216   0.000000  -0.000163   0.000015
   50  BR 6  Z    0.000136   0.000000  -0.000048   0.000000   0.000000
   51  BR 6  S    0.000000  -0.000280   0.000000  -0.003336   0.000566
   52  BR 6  X    0.000000   0.000587   0.000000  -0.000227  -0.000030
   53  BR 6  Y    0.000000  -0.000777   0.000000   0.000571  -0.000059
   54  BR 6  Z   -0.000484   0.000000   0.000167   0.000000   0.000000
   55  BR 6 XX    0.000000  -0.000753   0.000000   0.001416  -0.000161
   56  BR 6 YY    0.000000  -0.000616   0.000000   0.001286  -0.000193
   57  BR 6 ZZ    0.000000  -0.000945   0.000000   0.001357  -0.000167
   58  BR 6 XY    0.000000  -0.000506   0.000000   0.000037   0.000004
   59  BR 6 XZ   -0.000299   0.000000  -0.000002   0.000000   0.000000
   60  BR 6 YZ    0.000372   0.000000  -0.000046   0.000000   0.000000
   61  BR 6  S    0.000000  -0.002278   0.000000  -0.003150   0.000735
   62  BR 6  X    0.000000  -0.002804   0.000000   0.001062   0.000085
   63  BR 6  Y    0.000000   0.003348   0.000000  -0.002442   0.000455
   64  BR 6  Z    0.001979   0.000000  -0.000649   0.000000   0.000000
   65  BR 6  S    0.000000   0.020508   0.000000   0.003520  -0.001072
   66  BR 6  X    0.000000  -0.007185   0.000000  -0.002448  -0.000187
   67  BR 6  Y    0.000000   0.008921   0.000000   0.002268  -0.001336
   68  BR 6  Z    0.005182   0.000000   0.000517   0.000000   0.000000
   69  H  7  S   -0.000827  -0.001942  -0.000680  -0.000641  -0.000110
   70  H  7  S    0.005600   0.007359   0.000498   0.001982   0.000051
   71  H  8  S    0.000827  -0.001942   0.000680  -0.000641  -0.000110
   72  H  8  S   -0.005600   0.007359  -0.000498   0.001982   0.000051
   73  H  9  S   -0.000740  -0.000081   0.000566   0.000573  -0.001267
   74  H  9  S    0.001023   0.002541   0.009525   0.012150   0.000433
   75  H 10  S    0.000740  -0.000081  -0.000566   0.000573  -0.001267
   76  H 10  S   -0.001023   0.002541  -0.009525   0.012150   0.000433
   77  H 11  S   -0.001171  -0.001657   0.000686   0.000322  -0.001557
   78  H 11  S    0.001646  -0.002361   0.011962   0.009549   0.001859
   79  H 12  S    0.001171  -0.001657  -0.000686   0.000322  -0.001557
   80  H 12  S   -0.001646  -0.002361  -0.011962   0.009549   0.001859
   81  H 13  S    0.000000  -0.001248   0.000000  -0.002387   0.000998
   82  H 13  S    0.000000  -0.003420   0.000000   0.000881   0.016411
   83  H 14  S    0.000000   0.000705   0.000000  -0.001784   0.000210
   84  H 14  S    0.000000   0.004762   0.000000   0.000293   0.014857

                     11         12         13         14         15
                   -8.8899    -6.6837    -6.6735    -6.6640    -2.7791
                     A'         A'         A''        A'         A'  
    1  C  1  S    0.000036  -0.000112   0.000084   0.000009   0.003620
    2  C  1  S    0.000227  -0.000263   0.000297   0.000091   0.018354
    3  C  1  X    0.000082   0.000207  -0.000119   0.000068   0.002940
    4  C  1  Y    0.000047  -0.000314   0.000189  -0.000047  -0.000487
    5  C  1  Z   -0.000283  -0.000028   0.000040  -0.000114  -0.008008
    6  C  1  S    0.000872  -0.000104  -0.001828  -0.000057  -0.038566
    7  C  1  X   -0.000120   0.000338  -0.000241  -0.000348  -0.036162
    8  C  1  Y   -0.001623   0.000764  -0.000953  -0.000095   0.019369
    9  C  1  Z    0.000542  -0.000102   0.001220   0.000343   0.028107
   10  C  2  S    0.000036  -0.000112  -0.000084   0.000009   0.003620
   11  C  2  S    0.000227  -0.000263  -0.000297   0.000091   0.018354
   12  C  2  X    0.000082   0.000207   0.000119   0.000068   0.002940
   13  C  2  Y    0.000047  -0.000314  -0.000189  -0.000047  -0.000487
   14  C  2  Z    0.000283   0.000028   0.000040   0.000114   0.008008
   15  C  2  S    0.000872  -0.000104   0.001828  -0.000057  -0.038566
   16  C  2  X   -0.000120   0.000338   0.000241  -0.000348  -0.036162
   17  C  2  Y   -0.001623   0.000764   0.000953  -0.000095   0.019369
   18  C  2  Z   -0.000542   0.000102   0.001220  -0.000343  -0.028107
   19  C  3  S   -0.000043   0.000055  -0.000026  -0.000030  -0.000475
   20  C  3  S   -0.000546   0.000378  -0.000151  -0.000187  -0.002386
   21  C  3  X   -0.000149   0.000093  -0.000037  -0.000046  -0.002471
   22  C  3  Y    0.000207  -0.000040   0.000009   0.000066  -0.000528
   23  C  3  Z    0.000214  -0.000055   0.000024   0.000066   0.000472
   24  C  3  S    0.001943  -0.001568   0.000699   0.000536   0.013626
   25  C  3  X    0.000638  -0.000612  -0.000071   0.000299   0.023336
   26  C  3  Y   -0.000821   0.000639  -0.000662  -0.000413  -0.004677
   27  C  3  Z   -0.002016   0.000907  -0.000619  -0.000832  -0.012841
   28  C  4  S   -0.000043   0.000055   0.000026  -0.000030  -0.000475
   29  C  4  S   -0.000546   0.000378   0.000151  -0.000187  -0.002386
   30  C  4  X   -0.000149   0.000093   0.000037  -0.000046  -0.002471
   31  C  4  Y    0.000207  -0.000040  -0.000009   0.000066  -0.000528
   32  C  4  Z   -0.000214   0.000055   0.000024  -0.000066  -0.000472
   33  C  4  S    0.001943  -0.001568  -0.000699   0.000536   0.013626
   34  C  4  X    0.000638  -0.000612   0.000071   0.000299   0.023336
   35  C  4  Y   -0.000821   0.000639   0.000662  -0.000413  -0.004677
   36  C  4  Z    0.002016  -0.000907  -0.000619   0.000832   0.012841
   37  C  5  S    0.000049  -0.000023   0.000000   0.000020   0.000133
   38  C  5  S    0.000254  -0.000063   0.000000   0.000089   0.000065
   39  C  5  X    0.000189  -0.000082   0.000000   0.000028   0.001882
   40  C  5  Y    0.000097  -0.000090   0.000000   0.000024   0.001079
   41  C  5  Z    0.000000   0.000000  -0.000076   0.000000   0.000000
   42  C  5  S   -0.002251   0.001008   0.000000  -0.000756  -0.010739
   43  C  5  X   -0.001363   0.000759   0.000000  -0.000340  -0.019673
   44  C  5  Y    0.001187  -0.000486   0.000000   0.000575   0.003926
   45  C  5  Z    0.000000   0.000000   0.000140   0.000000   0.000000
   46  BR 6  S    0.131674   0.001741   0.000000   0.000020   0.000164
   47  BR 6  S   -0.480136  -0.006526   0.000000  -0.000047  -0.003617
   48  BR 6  X    0.004022  -0.310863   0.000000  -0.304160   0.002308
   49  BR 6  Y   -0.003792   0.303958   0.000000  -0.311038  -0.002213
   50  BR 6  Z    0.000000   0.000000  -0.434958   0.000000   0.000000
   51  BR 6  S    1.091632   0.015307   0.000000   0.000436  -0.009641
   52  BR 6  X   -0.009589   0.754583   0.000000   0.738556  -0.006168
   53  BR 6  Y    0.009009  -0.737809   0.000000   0.755234   0.005783
   54  BR 6  Z    0.000000   0.000000   1.055996   0.000000   0.000000
   55  BR 6 XX   -0.006906  -0.002374   0.000000  -0.004962  -0.321185
   56  BR 6 YY   -0.006979  -0.002031   0.000000   0.004728  -0.331494
   57  BR 6 ZZ   -0.007050   0.002854   0.000000  -0.000063   0.657354
   58  BR 6 XY   -0.002114   0.005630   0.000000  -0.000207   0.751876
   59  BR 6 XZ    0.000000   0.000000  -0.003974   0.000000   0.000000
   60  BR 6 YZ    0.000000   0.000000   0.003771   0.000000   0.000000
   61  BR 6  S    0.048581  -0.001804   0.000000   0.000252  -0.027498
   62  BR 6  X   -0.001660   0.030388   0.000000   0.028105   0.005873
   63  BR 6  Y    0.001977  -0.029897   0.000000   0.029039  -0.003718
   64  BR 6  Z    0.000000   0.000000   0.041225   0.000000   0.000000
   65  BR 6  S   -0.015529   0.001733   0.000000  -0.000091   0.081127
   66  BR 6  X    0.002401  -0.005925   0.000000  -0.004740  -0.043180
   67  BR 6  Y   -0.002665   0.005904   0.000000  -0.004979   0.042271
   68  BR 6  Z    0.000000   0.000000  -0.007286   0.000000   0.000000
   69  H  7  S   -0.000358   0.000059  -0.000073   0.000027   0.000019
   70  H  7  S   -0.000051  -0.000062   0.000029  -0.000635  -0.011318
   71  H  8  S   -0.000358   0.000059   0.000073   0.000027   0.000019
   72  H  8  S   -0.000051  -0.000062  -0.000029  -0.000635  -0.011318
   73  H  9  S    0.000132  -0.000064   0.000059   0.000067   0.002454
   74  H  9  S    0.000734  -0.000347   0.000134   0.000358   0.006351
   75  H 10  S    0.000132  -0.000064  -0.000059   0.000067   0.002454
   76  H 10  S    0.000734  -0.000347  -0.000134   0.000358   0.006351
   77  H 11  S   -0.000452   0.000220  -0.000175  -0.000238  -0.002218
   78  H 11  S    0.000515   0.000138   0.000437   0.000470  -0.012352
   79  H 12  S   -0.000452   0.000220   0.000175  -0.000238  -0.002218
   80  H 12  S    0.000515   0.000138  -0.000437   0.000470  -0.012352
   81  H 13  S   -0.000084   0.000055   0.000000  -0.000019  -0.001165
   82  H 13  S   -0.000555   0.000266   0.000000  -0.000173  -0.008169
   83  H 14  S    0.000205  -0.000100   0.000000   0.000067   0.001973
   84  H 14  S    0.000341  -0.000237   0.000000  -0.000054   0.006678

                     16         17         18         19         20
                   -2.7781    -2.7683    -2.7602    -2.7592    -1.1655
                     A''        A'         A''        A'         A'  
    1  C  1  S   -0.004552   0.000612  -0.000734  -0.001664  -0.117871
    2  C  1  S   -0.022990   0.003891  -0.003934  -0.008407   0.105019
    3  C  1  X   -0.005317   0.004080  -0.003999  -0.001001   0.043479
    4  C  1  Y    0.002742   0.004389  -0.003987   0.001234  -0.023937
    5  C  1  Z   -0.000683  -0.002212   0.000075  -0.000411  -0.070363
    6  C  1  S    0.109669  -0.010997   0.025863   0.030076   0.269153
    7  C  1  X    0.047172  -0.021038   0.031989   0.012889   0.070001
    8  C  1  Y   -0.010753  -0.027490   0.037502  -0.010098  -0.016095
    9  C  1  Z   -0.051206   0.004444  -0.011418   0.002411  -0.054887
   10  C  2  S    0.004552   0.000612   0.000734  -0.001664  -0.117871
   11  C  2  S    0.022990   0.003891   0.003934  -0.008407   0.105019
   12  C  2  X    0.005317   0.004080   0.003999  -0.001001   0.043479
   13  C  2  Y   -0.002742   0.004389   0.003987   0.001234  -0.023937
   14  C  2  Z   -0.000683   0.002212   0.000075   0.000411   0.070363
   15  C  2  S   -0.109669  -0.010997  -0.025863   0.030076   0.269153
   16  C  2  X   -0.047172  -0.021038  -0.031989   0.012889   0.070001
   17  C  2  Y    0.010753  -0.027490  -0.037502  -0.010098  -0.016095
   18  C  2  Z   -0.051206  -0.004444  -0.011418  -0.002411   0.054887
   19  C  3  S    0.000718  -0.000895   0.000679   0.000376  -0.039660
   20  C  3  S    0.003385  -0.004943   0.003257   0.001959   0.045593
   21  C  3  X    0.002741   0.000436   0.000646   0.000837  -0.004421
   22  C  3  Y    0.001160  -0.001073   0.001669  -0.000449  -0.027321
   23  C  3  Z   -0.000096   0.000146   0.000545   0.000407  -0.026614
   24  C  3  S   -0.024196   0.033260  -0.034238  -0.011800   0.042078
   25  C  3  X   -0.016577  -0.005729   0.002886  -0.005648  -0.030144
   26  C  3  Y    0.016887  -0.010225   0.014523   0.007511   0.017801
   27  C  3  Z    0.014197  -0.012237   0.008728   0.000792   0.021568
   28  C  4  S   -0.000718  -0.000895  -0.000679   0.000376  -0.039660
   29  C  4  S   -0.003385  -0.004943  -0.003257   0.001959   0.045593
   30  C  4  X   -0.002741   0.000436  -0.000646   0.000837  -0.004421
   31  C  4  Y   -0.001160  -0.001073  -0.001669  -0.000449  -0.027321
   32  C  4  Z   -0.000096  -0.000146   0.000545  -0.000407   0.026614
   33  C  4  S    0.024196   0.033260   0.034238  -0.011800   0.042078
   34  C  4  X    0.016577  -0.005729  -0.002886  -0.005648  -0.030144
   35  C  4  Y   -0.016887  -0.010225  -0.014523   0.007511   0.017801
   36  C  4  Z    0.014197   0.012237   0.008728  -0.000792  -0.021568
   37  C  5  S    0.000000   0.000108   0.000000  -0.000103  -0.024527
   38  C  5  S    0.000000  -0.000362   0.000000  -0.000544   0.026291
   39  C  5  X    0.000000   0.000497   0.000000  -0.000040  -0.005431
   40  C  5  Y    0.000000   0.001862   0.000000   0.000512  -0.024213
   41  C  5  Z    0.001848   0.000000   0.001234   0.000000   0.000000
   42  C  5  S    0.000000  -0.013081   0.000000   0.000395   0.052833
   43  C  5  X    0.000000  -0.003051   0.000000   0.002170   0.032443
   44  C  5  Y    0.000000   0.001955   0.000000  -0.005246  -0.009372
   45  C  5  Z   -0.003450   0.000000   0.000293   0.000000   0.000000
   46  BR 6  S    0.000000  -0.000026   0.000000  -0.000182  -0.023822
   47  BR 6  S    0.000000   0.000253   0.000000   0.002128   0.093752
   48  BR 6  X    0.000000  -0.002087   0.000000  -0.000467  -0.019901
   49  BR 6  Y    0.000000  -0.001816   0.000000   0.000429   0.020776
   50  BR 6  Z    0.002574   0.000000  -0.000134   0.000000   0.000000
   51  BR 6  S    0.000000   0.001030   0.000000   0.003512  -0.211695
   52  BR 6  X    0.000000   0.005619   0.000000   0.001303   0.060749
   53  BR 6  Y    0.000000   0.004752   0.000000  -0.001144  -0.063343
   54  BR 6  Z   -0.006725   0.000000   0.000409   0.000000   0.000000
   55  BR 6 XX    0.000000   0.873415   0.000000  -0.362839  -0.008545
   56  BR 6 YY    0.000000  -0.857186   0.000000  -0.392629  -0.011327
   57  BR 6 ZZ    0.000000  -0.017460   0.000000   0.753474   0.000585
   58  BR 6 XY    0.000000   0.006582   0.000000  -0.655869   0.018097
   59  BR 6 XZ   -0.703966   0.000000   0.708422   0.000000   0.000000
   60  BR 6 YZ    0.706726   0.000000   0.705254   0.000000   0.000000
   61  BR 6  S    0.000000   0.001625   0.000000   0.013830   0.297182
   62  BR 6  X    0.000000  -0.004464   0.000000  -0.002644  -0.086530
   63  BR 6  Y    0.000000  -0.001894   0.000000   0.001592   0.088964
   64  BR 6  Z    0.003591   0.000000  -0.000947   0.000000   0.000000
   65  BR 6  S    0.000000  -0.001325   0.000000  -0.035333   0.209987
   66  BR 6  X    0.000000   0.009074   0.000000   0.018370  -0.001423
   67  BR 6  Y    0.000000   0.007271   0.000000  -0.016937  -0.001386
   68  BR 6  Z   -0.032491   0.000000   0.000076   0.000000   0.000000
   69  H  7  S   -0.001131  -0.001634   0.003515  -0.001631   0.037059
   70  H  7  S    0.011029  -0.016536   0.019499  -0.003413   0.006584
   71  H  8  S    0.001131  -0.001634  -0.003515  -0.001631   0.037059
   72  H  8  S   -0.011029  -0.016536  -0.019499  -0.003413   0.006584
   73  H  9  S   -0.002042  -0.000936   0.000772  -0.000050   0.007148
   74  H  9  S   -0.005412   0.000668  -0.000997  -0.001075  -0.020124
   75  H 10  S    0.002042  -0.000936  -0.000772  -0.000050   0.007148
   76  H 10  S    0.005412   0.000668   0.000997  -0.001075  -0.020124
   77  H 11  S    0.002926  -0.000716   0.001309   0.001257   0.018327
   78  H 11  S    0.009086  -0.000542   0.001592   0.004724   0.005900
   79  H 12  S   -0.002926  -0.000716  -0.001309   0.001257   0.018327
   80  H 12  S   -0.009086  -0.000542  -0.001592   0.004724   0.005900
   81  H 13  S    0.000000   0.000546   0.000000   0.000190   0.010096
   82  H 13  S    0.000000  -0.001786   0.000000   0.001897   0.010546
   83  H 14  S    0.000000   0.000463   0.000000   0.000169   0.003809
   84  H 14  S    0.000000   0.003873   0.000000   0.000582  -0.016608

                     21         22         23         24         25
                   -1.0062    -0.9318    -0.8900    -0.7779    -0.7731
                     A'         A''        A'         A''        A'  
    1  C  1  S    0.034697  -0.102051   0.102870  -0.101724  -0.013114
    2  C  1  S   -0.041066   0.092529  -0.097576   0.084077   0.010641
    3  C  1  X    0.005476   0.024137   0.053305  -0.041700  -0.077832
    4  C  1  Y   -0.097215   0.040588   0.012479  -0.087852  -0.109258
    5  C  1  Z   -0.006810   0.078098   0.062440   0.081225  -0.107643
    6  C  1  S   -0.055602   0.348033  -0.323036   0.489909   0.073045
    7  C  1  X    0.001500   0.038790  -0.007122   0.016247  -0.037413
    8  C  1  Y   -0.027483   0.002354   0.014630  -0.052058  -0.074523
    9  C  1  Z    0.003720  -0.037488   0.039545  -0.020443  -0.064893
   10  C  2  S    0.034697   0.102051   0.102870   0.101724  -0.013114
   11  C  2  S   -0.041066  -0.092529  -0.097576  -0.084077   0.010641
   12  C  2  X    0.005476  -0.024137   0.053305   0.041700  -0.077832
   13  C  2  Y   -0.097215  -0.040588   0.012479   0.087852  -0.109258
   14  C  2  Z    0.006810   0.078098  -0.062440   0.081225   0.107643
   15  C  2  S   -0.055602  -0.348033  -0.323036  -0.489909   0.073045
   16  C  2  X    0.001500  -0.038790  -0.007122  -0.016247  -0.037413
   17  C  2  Y   -0.027483  -0.002354   0.014630   0.052058  -0.074523
   18  C  2  Z   -0.003720  -0.037488  -0.039545  -0.020443   0.064893
   19  C  3  S    0.103196  -0.127112  -0.039842   0.087232   0.075511
   20  C  3  S   -0.097903   0.118673   0.037019  -0.075943  -0.066965
   21  C  3  X    0.017295  -0.019646   0.026745  -0.030669  -0.010724
   22  C  3  Y   -0.001401  -0.044078   0.066679  -0.081761   0.098803
   23  C  3  Z    0.048932   0.004650  -0.016850  -0.022615  -0.076444
   24  C  3  S   -0.253741   0.345920   0.118427  -0.336875  -0.296367
   25  C  3  X    0.004050  -0.011972   0.020847  -0.018893  -0.022876
   26  C  3  Y    0.014225  -0.004258   0.002004  -0.017454   0.042996
   27  C  3  Z    0.026307  -0.001856  -0.007919   0.017243  -0.002202
   28  C  4  S    0.103196   0.127112  -0.039842  -0.087232   0.075511
   29  C  4  S   -0.097903  -0.118673   0.037019   0.075943  -0.066965
   30  C  4  X    0.017295   0.019646   0.026745   0.030669  -0.010724
   31  C  4  Y   -0.001401   0.044078   0.066679   0.081761   0.098803
   32  C  4  Z   -0.048932   0.004650   0.016850  -0.022615   0.076444
   33  C  4  S   -0.253741  -0.345920   0.118427   0.336875  -0.296367
   34  C  4  X    0.004050   0.011972   0.020847   0.018893  -0.022876
   35  C  4  Y    0.014225   0.004258   0.002004   0.017454   0.042996
   36  C  4  Z   -0.026307  -0.001856   0.007919   0.017243   0.002202
   37  C  5  S    0.110994   0.000000  -0.111673   0.000000  -0.138095
   38  C  5  S   -0.108991   0.000000   0.102250   0.000000   0.120518
   39  C  5  X    0.004057   0.000000   0.011695   0.000000  -0.015488
   40  C  5  Y    0.053617   0.000000  -0.000046   0.000000   0.079453
   41  C  5  Z    0.000000   0.077029   0.000000  -0.115389   0.000000
   42  C  5  S   -0.236495   0.000000   0.315593   0.000000   0.523308
   43  C  5  X    0.013116   0.000000  -0.012150   0.000000  -0.007208
   44  C  5  Y    0.009039   0.000000  -0.010602   0.000000  -0.009862
   45  C  5  Z    0.000000  -0.005275   0.000000  -0.036011   0.000000
   46  BR 6  S   -0.022172   0.000000  -0.023655   0.000000   0.004443
   47  BR 6  S    0.084298   0.000000   0.087895   0.000000  -0.015694
   48  BR 6  X   -0.007427   0.000000   0.014613   0.000000  -0.020120
   49  BR 6  Y    0.003029   0.000000  -0.010571   0.000000   0.001782
   50  BR 6  Z    0.000000   0.013181   0.000000   0.026918   0.000000
   51  BR 6  S   -0.211710   0.000000  -0.236598   0.000000   0.048669
   52  BR 6  X    0.022992   0.000000  -0.044628   0.000000   0.062053
   53  BR 6  Y   -0.009414   0.000000   0.032248   0.000000  -0.005468
   54  BR 6  Z    0.000000  -0.040396   0.000000  -0.082943   0.000000
   55  BR 6 XX   -0.004700   0.000000   0.002393   0.000000  -0.006761
   56  BR 6 YY   -0.000868   0.000000   0.000706   0.000000   0.001924
   57  BR 6 ZZ   -0.003731   0.000000  -0.006282   0.000000   0.002589
   58  BR 6 XY    0.000648   0.000000  -0.011421   0.000000   0.005973
   59  BR 6 XZ    0.000000   0.007405   0.000000   0.011706   0.000000
   60  BR 6 YZ    0.000000  -0.008986   0.000000  -0.009774   0.000000
   61  BR 6  S    0.257429   0.000000   0.261915   0.000000  -0.042730
   62  BR 6  X   -0.036324   0.000000   0.062098   0.000000  -0.093175
   63  BR 6  Y    0.014253   0.000000  -0.045450   0.000000   0.008085
   64  BR 6  Z    0.000000   0.058292   0.000000   0.123594   0.000000
   65  BR 6  S    0.337079   0.000000   0.468077   0.000000  -0.125209
   66  BR 6  X   -0.030807   0.000000  -0.009263   0.000000  -0.038901
   67  BR 6  Y    0.026388   0.000000   0.029582   0.000000  -0.017545
   68  BR 6  Z    0.000000   0.009625   0.000000   0.049369   0.000000
   69  H  7  S   -0.009409   0.064428  -0.068745   0.132686   0.030055
   70  H  7  S   -0.005054   0.022510  -0.019613   0.060295   0.007645
   71  H  8  S   -0.009409  -0.064428  -0.068745  -0.132686   0.030055
   72  H  8  S   -0.005054  -0.022510  -0.019613  -0.060295   0.007645
   73  H  9  S   -0.041188   0.063811   0.023168  -0.071235  -0.054642
   74  H  9  S    0.001439   0.001545   0.006553  -0.027090  -0.021417
   75  H 10  S   -0.041188  -0.063811   0.023168   0.071235  -0.054642
   76  H 10  S    0.001439  -0.001545   0.006553   0.027090  -0.021417
   77  H 11  S   -0.037680   0.063413   0.028680  -0.068358  -0.069281
   78  H 11  S    0.006079   0.000271  -0.001315  -0.017267  -0.020305
   79  H 12  S   -0.037680  -0.063413   0.028680   0.068358  -0.069281
   80  H 12  S    0.006079  -0.000271  -0.001315   0.017267  -0.020305
   81  H 13  S   -0.045515   0.000000   0.054765   0.000000   0.107814
   82  H 13  S    0.013510   0.000000  -0.004541   0.000000   0.035422
   83  H 14  S   -0.041625   0.000000   0.064230   0.000000   0.107090
   84  H 14  S    0.003465   0.000000   0.014088   0.000000   0.035563

                     26         27         28         29         30
                   -0.7381    -0.6779    -0.6241    -0.6153    -0.5892
                     A'         A'         A''        A'         A'' 
    1  C  1  S   -0.012873  -0.009010  -0.002104  -0.014528  -0.025759
    2  C  1  S    0.020799   0.013228  -0.020460   0.018399   0.031684
    3  C  1  X   -0.162118  -0.056092   0.167927  -0.074735   0.103788
    4  C  1  Y   -0.084274   0.159803  -0.009778   0.033687   0.235134
    5  C  1  Z    0.188391   0.015602  -0.036489   0.109640   0.016448
    6  C  1  S    0.037321   0.021943   0.124483   0.049277   0.096244
    7  C  1  X   -0.161548  -0.042752   0.200047  -0.070451   0.099927
    8  C  1  Y   -0.095140   0.131947   0.006858   0.029358   0.234988
    9  C  1  Z    0.142651   0.014344  -0.096620   0.085717  -0.015470
   10  C  2  S   -0.012873  -0.009010   0.002104  -0.014528   0.025759
   11  C  2  S    0.020799   0.013228   0.020460   0.018399  -0.031684
   12  C  2  X   -0.162118  -0.056092  -0.167927  -0.074735  -0.103788
   13  C  2  Y   -0.084274   0.159803   0.009778   0.033687  -0.235134
   14  C  2  Z   -0.188391  -0.015602  -0.036489  -0.109640   0.016448
   15  C  2  S    0.037321   0.021943  -0.124483   0.049277  -0.096244
   16  C  2  X   -0.161548  -0.042752  -0.200047  -0.070451  -0.099927
   17  C  2  Y   -0.095140   0.131947  -0.006858   0.029358  -0.234988
   18  C  2  Z   -0.142651  -0.014344  -0.096620  -0.085717  -0.015470
   19  C  3  S   -0.024351   0.020307  -0.000747   0.017479  -0.007692
   20  C  3  S    0.015859  -0.016282   0.003792  -0.017181   0.011525
   21  C  3  X   -0.038223  -0.167688   0.173712   0.112394  -0.127543
   22  C  3  Y    0.036832  -0.038916  -0.106052  -0.068805  -0.196991
   23  C  3  Z    0.107527  -0.090386  -0.027374  -0.150353  -0.095020
   24  C  3  S    0.140126  -0.109366  -0.036278  -0.077637  -0.018577
   25  C  3  X   -0.031212  -0.102293   0.133840   0.121382  -0.076283
   26  C  3  Y    0.005526  -0.012075  -0.061809  -0.066732  -0.106830
   27  C  3  Z    0.040600  -0.057212  -0.004839  -0.131619  -0.056865
   28  C  4  S   -0.024351   0.020307   0.000747   0.017479   0.007692
   29  C  4  S    0.015859  -0.016282  -0.003792  -0.017181  -0.011525
   30  C  4  X   -0.038223  -0.167688  -0.173712   0.112394   0.127543
   31  C  4  Y    0.036832  -0.038916   0.106052  -0.068805   0.196991
   32  C  4  Z   -0.107527   0.090386  -0.027374   0.150353  -0.095020
   33  C  4  S    0.140126  -0.109366   0.036278  -0.077637   0.018577
   34  C  4  X   -0.031212  -0.102293  -0.133840   0.121382   0.076283
   35  C  4  Y    0.005526  -0.012075   0.061809  -0.066732   0.106830
   36  C  4  Z   -0.040600   0.057212  -0.004839   0.131619  -0.056865
   37  C  5  S   -0.005097  -0.000337   0.000000  -0.021698   0.000000
   38  C  5  S    0.005373  -0.001070   0.000000   0.021305   0.000000
   39  C  5  X   -0.017884  -0.148646   0.000000   0.190508   0.000000
   40  C  5  Y    0.063236  -0.069718   0.000000  -0.083935   0.000000
   41  C  5  Z    0.000000   0.000000  -0.066641   0.000000  -0.080546
   42  C  5  S   -0.005112   0.004820   0.000000   0.070422   0.000000
   43  C  5  X   -0.017303  -0.123456   0.000000   0.124852   0.000000
   44  C  5  Y    0.046732  -0.058690   0.000000  -0.053611   0.000000
   45  C  5  Z    0.000000   0.000000  -0.038676   0.000000  -0.069647
   46  BR 6  S   -0.004644  -0.009018   0.000000  -0.002238   0.000000
   47  BR 6  S    0.015786   0.033659   0.000000   0.006829   0.000000
   48  BR 6  X    0.002392   0.036046   0.000000   0.030571   0.000000
   49  BR 6  Y   -0.029867  -0.032242   0.000000  -0.024274   0.000000
   50  BR 6  Z    0.000000   0.000000   0.053038   0.000000  -0.034702
   51  BR 6  S   -0.054592  -0.094568   0.000000  -0.031532   0.000000
   52  BR 6  X   -0.007499  -0.111638   0.000000  -0.094933   0.000000
   53  BR 6  Y    0.092280   0.099747   0.000000   0.075360   0.000000
   54  BR 6  Z    0.000000   0.000000  -0.164289   0.000000   0.107616
   55  BR 6 XX   -0.002662   0.004428   0.000000   0.003733   0.000000
   56  BR 6 YY    0.011753   0.000740   0.000000   0.003734   0.000000
   57  BR 6 ZZ   -0.003759  -0.000323   0.000000  -0.000422   0.000000
   58  BR 6 XY   -0.007050  -0.006535   0.000000  -0.005228   0.000000
   59  BR 6 XZ    0.000000   0.000000   0.005263   0.000000  -0.005784
   60  BR 6 YZ    0.000000   0.000000  -0.010335   0.000000  -0.000584
   61  BR 6  S    0.039137   0.105080   0.000000   0.012081   0.000000
   62  BR 6  X    0.014205   0.172930   0.000000   0.149536   0.000000
   63  BR 6  Y   -0.141090  -0.151281   0.000000  -0.118238   0.000000
   64  BR 6  Z    0.000000   0.000000   0.250959   0.000000  -0.165104
   65  BR 6  S    0.147602   0.213964   0.000000   0.099737   0.000000
   66  BR 6  X   -0.019728   0.092409   0.000000   0.094666   0.000000
   67  BR 6  Y   -0.056795  -0.099668   0.000000  -0.066900   0.000000
   68  BR 6  Z    0.000000   0.000000   0.183589   0.000000  -0.137446
   69  H  7  S    0.146095  -0.003515  -0.093384   0.085730  -0.093103
   70  H  7  S    0.043936   0.004592  -0.039661   0.062454  -0.056733
   71  H  8  S    0.146095  -0.003515   0.093384   0.085730   0.093103
   72  H  8  S    0.043936   0.004592   0.039661   0.062454   0.056733
   73  H  9  S    0.074755  -0.010927  -0.097709  -0.140596  -0.045587
   74  H  9  S    0.037982  -0.004120  -0.071100  -0.085461  -0.044261
   75  H 10  S    0.074755  -0.010927   0.097709  -0.140596   0.045587
   76  H 10  S    0.037982  -0.004120   0.071100  -0.085461   0.044261
   77  H 11  S    0.013474  -0.119305   0.106196   0.024489  -0.082264
   78  H 11  S    0.006974  -0.076928   0.080562   0.013869  -0.078730
   79  H 12  S    0.013474  -0.119305  -0.106196   0.024489   0.082264
   80  H 12  S    0.006974  -0.076928  -0.080562   0.013869   0.078730
   81  H 13  S    0.028131   0.051849   0.000000  -0.110859   0.000000
   82  H 13  S    0.015326   0.021487   0.000000  -0.096050   0.000000
   83  H 14  S    0.018676  -0.083915   0.000000   0.069433   0.000000
   84  H 14  S    0.012813  -0.041002   0.000000   0.048974   0.000000

                     31         32         33         34         35
                   -0.5856    -0.5465    -0.5446    -0.5239    -0.5086
                     A'         A''        A'         A''        A'  
    1  C  1  S   -0.017297  -0.001919  -0.031085  -0.022010   0.008432
    2  C  1  S    0.011924  -0.014369   0.030571   0.026283  -0.009191
    3  C  1  X    0.136538   0.096013  -0.071527  -0.051697  -0.095702
    4  C  1  Y    0.023419  -0.008006   0.107140   0.007899  -0.093965
    5  C  1  Z    0.216797  -0.050291  -0.161244  -0.002117  -0.038257
    6  C  1  S    0.103615   0.093122   0.148501   0.089146  -0.034279
    7  C  1  X    0.131477   0.124668  -0.039272  -0.066120  -0.081020
    8  C  1  Y    0.051249  -0.031851   0.125820  -0.012861  -0.053055
    9  C  1  Z    0.169309  -0.087700  -0.115198  -0.016589  -0.028383
   10  C  2  S   -0.017297   0.001919  -0.031085   0.022010   0.008432
   11  C  2  S    0.011924   0.014369   0.030571  -0.026283  -0.009191
   12  C  2  X    0.136538  -0.096013  -0.071527   0.051697  -0.095702
   13  C  2  Y    0.023419   0.008006   0.107140  -0.007899  -0.093965
   14  C  2  Z   -0.216797  -0.050291   0.161244  -0.002117   0.038257
   15  C  2  S    0.103615  -0.093122   0.148501  -0.089146  -0.034279
   16  C  2  X    0.131477  -0.124668  -0.039272   0.066120  -0.081020
   17  C  2  Y    0.051249   0.031851   0.125820   0.012861  -0.053055
   18  C  2  Z   -0.169309  -0.087700   0.115198  -0.016589   0.028383
   19  C  3  S    0.032896  -0.003337   0.017232  -0.016001   0.005247
   20  C  3  S   -0.025040   0.005624  -0.012734   0.011759  -0.005984
   21  C  3  X   -0.043325  -0.152427  -0.006058   0.095306   0.090603
   22  C  3  Y   -0.139184   0.104159  -0.033328   0.058183   0.084291
   23  C  3  Z    0.003571  -0.109731   0.123901  -0.259815  -0.006634
   24  C  3  S   -0.184486  -0.003716  -0.100521   0.084393  -0.030055
   25  C  3  X   -0.008285  -0.156961   0.007955   0.093247   0.094228
   26  C  3  Y   -0.074531   0.099402   0.005886   0.042239   0.039749
   27  C  3  Z    0.005685  -0.077404   0.111609  -0.233284  -0.016793
   28  C  4  S    0.032896   0.003337   0.017232   0.016001   0.005247
   29  C  4  S   -0.025040  -0.005624  -0.012734  -0.011759  -0.005984
   30  C  4  X   -0.043325   0.152427  -0.006058  -0.095306   0.090603
   31  C  4  Y   -0.139184  -0.104159  -0.033328  -0.058183   0.084291
   32  C  4  Z   -0.003571  -0.109731  -0.123901  -0.259815   0.006634
   33  C  4  S   -0.184486   0.003716  -0.100521  -0.084393  -0.030055
   34  C  4  X   -0.008285   0.156961   0.007955  -0.093247   0.094228
   35  C  4  Y   -0.074531  -0.099402   0.005886  -0.042239   0.039749
   36  C  4  Z   -0.005685  -0.077404  -0.111609  -0.233284   0.016793
   37  C  5  S   -0.030363   0.000000   0.019428   0.000000  -0.002312
   38  C  5  S    0.027951   0.000000  -0.017689   0.000000  -0.000089
   39  C  5  X   -0.057760   0.000000   0.135620   0.000000  -0.173500
   40  C  5  Y    0.189234   0.000000   0.248720   0.000000  -0.094064
   41  C  5  Z    0.000000   0.183386   0.000000   0.271565   0.000000
   42  C  5  S    0.151606   0.000000  -0.052614   0.000000   0.017246
   43  C  5  X   -0.046948   0.000000   0.124678   0.000000  -0.168263
   44  C  5  Y    0.143946   0.000000   0.191757   0.000000  -0.083500
   45  C  5  Z    0.000000   0.117374   0.000000   0.170387   0.000000
   46  BR 6  S    0.003116   0.000000  -0.002288   0.000000   0.000146
   47  BR 6  S   -0.012349   0.000000   0.009325   0.000000  -0.001520
   48  BR 6  X    0.010239   0.000000   0.060225   0.000000   0.067138
   49  BR 6  Y    0.048294   0.000000  -0.002744   0.000000   0.058007
   50  BR 6  Z    0.000000   0.074330   0.000000  -0.030641   0.000000
   51  BR 6  S    0.029889   0.000000  -0.022943   0.000000  -0.002356
   52  BR 6  X   -0.031763   0.000000  -0.187020   0.000000  -0.208591
   53  BR 6  Y   -0.149718   0.000000   0.008658   0.000000  -0.180172
   54  BR 6  Z    0.000000  -0.230852   0.000000   0.095206   0.000000
   55  BR 6 XX    0.006634   0.000000   0.000837   0.000000  -0.002315
   56  BR 6 YY   -0.002652   0.000000  -0.002681   0.000000   0.003023
   57  BR 6 ZZ   -0.004206   0.000000   0.004369   0.000000   0.001202
   58  BR 6 XY   -0.000324   0.000000   0.001870   0.000000  -0.000653
   59  BR 6 XZ    0.000000   0.004294   0.000000   0.000720   0.000000
   60  BR 6 YZ    0.000000  -0.004716   0.000000   0.000177   0.000000
   61  BR 6  S   -0.043584   0.000000   0.034310   0.000000  -0.010879
   62  BR 6  X    0.048948   0.000000   0.287932   0.000000   0.320727
   63  BR 6  Y    0.228466   0.000000  -0.015744   0.000000   0.275168
   64  BR 6  Z    0.000000   0.358574   0.000000  -0.147295   0.000000
   65  BR 6  S   -0.053050   0.000000   0.037104   0.000000   0.020060
   66  BR 6  X    0.035273   0.000000   0.276174   0.000000   0.326377
   67  BR 6  Y    0.205003   0.000000  -0.014473   0.000000   0.301536
   68  BR 6  Z    0.000000   0.296964   0.000000  -0.142513   0.000000
   69  H  7  S    0.027808  -0.075565  -0.032847   0.058814   0.060165
   70  H  7  S    0.027602  -0.053805  -0.026237   0.039683   0.058902
   71  H  8  S    0.027808   0.075565  -0.032847  -0.058814   0.060165
   72  H  8  S    0.027602   0.053805  -0.026237  -0.039683   0.058902
   73  H  9  S   -0.046539   0.033070   0.043286  -0.155965  -0.019973
   74  H  9  S   -0.024503   0.017393   0.039791  -0.142803  -0.000053
   75  H 10  S   -0.046539  -0.033070   0.043286   0.155965  -0.019973
   76  H 10  S   -0.024503  -0.017393   0.039791   0.142803  -0.000053
   77  H 11  S   -0.044490  -0.131795   0.017245   0.013496   0.064595
   78  H 11  S   -0.028091  -0.100158   0.029366  -0.001585   0.078801
   79  H 12  S   -0.044490   0.131795   0.017245  -0.013496   0.064595
   80  H 12  S   -0.028091   0.100158   0.029366   0.001585   0.078801
   81  H 13  S    0.116776   0.000000  -0.015106   0.000000   0.082632
   82  H 13  S    0.084361   0.000000   0.006763   0.000000   0.078179
   83  H 14  S    0.083731   0.000000   0.173299   0.000000  -0.144084
   84  H 14  S    0.052285   0.000000   0.146843   0.000000  -0.127259

                     36         37         38         39         40
                   -0.4905    -0.2428    -0.2154    -0.0791    -0.0393
                     A'         A''        A'         A'         A'' 
    1  C  1  S    0.011408  -0.057051   0.058652   0.051101  -0.121731
    2  C  1  S   -0.014315   0.015211  -0.038006  -0.032915   0.051584
    3  C  1  X    0.005973   0.255317  -0.195950   0.096791  -0.116495
    4  C  1  Y   -0.050743  -0.217911   0.182275   0.080807  -0.064896
    5  C  1  Z    0.052249   0.019084   0.028359  -0.087950  -0.209483
    6  C  1  S   -0.044845   0.614515  -0.462230  -0.683757   1.597140
    7  C  1  X    0.024710   0.462245  -0.419989   0.288147  -0.300545
    8  C  1  Y   -0.021876  -0.353722   0.327359   0.316277  -0.271238
    9  C  1  Z    0.040503  -0.107639   0.065446  -0.248563  -0.856437
   10  C  2  S    0.011408   0.057051   0.058652   0.051101   0.121731
   11  C  2  S   -0.014315  -0.015211  -0.038006  -0.032915  -0.051584
   12  C  2  X    0.005973  -0.255317  -0.195950   0.096791   0.116495
   13  C  2  Y   -0.050743   0.217911   0.182275   0.080807   0.064896
   14  C  2  Z   -0.052249   0.019084  -0.028359   0.087950  -0.209483
   15  C  2  S   -0.044845  -0.614515  -0.462230  -0.683757  -1.597140
   16  C  2  X    0.024710  -0.462245  -0.419989   0.288147   0.300545
   17  C  2  Y   -0.021876   0.353722   0.327359   0.316277   0.271238
   18  C  2  Z   -0.040503  -0.107639  -0.065446   0.248563  -0.856437
   19  C  3  S   -0.004221   0.010897   0.003134   0.032663  -0.012934
   20  C  3  S    0.006681  -0.003852  -0.006315  -0.027270  -0.002212
   21  C  3  X   -0.148731   0.006512  -0.013883   0.065977  -0.025460
   22  C  3  Y    0.120241   0.042697  -0.036564  -0.012176   0.047820
   23  C  3  Z   -0.033049   0.026683  -0.000341  -0.062533  -0.030403
   24  C  3  S    0.002672  -0.089330  -0.028540  -0.361290   0.267264
   25  C  3  X   -0.141549  -0.000336  -0.029439   0.224960  -0.126706
   26  C  3  Y    0.108191   0.072056  -0.054179  -0.059618   0.208843
   27  C  3  Z   -0.017189   0.091196  -0.051021  -0.281886  -0.167638
   28  C  4  S   -0.004221  -0.010897   0.003134   0.032663   0.012934
   29  C  4  S    0.006681   0.003852  -0.006315  -0.027270   0.002212
   30  C  4  X   -0.148731  -0.006512  -0.013883   0.065977   0.025460
   31  C  4  Y    0.120241  -0.042697  -0.036564  -0.012176  -0.047820
   32  C  4  Z    0.033049   0.026683   0.000341   0.062533  -0.030403
   33  C  4  S    0.002672   0.089330  -0.028540  -0.361290  -0.267264
   34  C  4  X   -0.141549   0.000336  -0.029439   0.224960   0.126706
   35  C  4  Y    0.108191  -0.072056  -0.054179  -0.059618  -0.208843
   36  C  4  Z    0.017189   0.091196   0.051021   0.281886  -0.167638
   37  C  5  S   -0.010075   0.000000   0.019782   0.048165   0.000000
   38  C  5  S    0.012408   0.000000  -0.015825  -0.020850   0.000000
   39  C  5  X    0.216152   0.000000   0.005711   0.051390   0.000000
   40  C  5  Y   -0.139738   0.000000   0.031998   0.008771   0.000000
   41  C  5  Z    0.000000   0.055123   0.000000   0.000000  -0.185726
   42  C  5  S    0.027676   0.000000  -0.173666  -0.536723   0.000000
   43  C  5  X    0.218590   0.000000  -0.016313   0.194569   0.000000
   44  C  5  Y   -0.106380   0.000000  -0.004916   0.084066   0.000000
   45  C  5  Z    0.000000   0.103631   0.000000   0.000000  -0.540817
   46  BR 6  S   -0.000774   0.000000  -0.012719   0.000252   0.000000
   47  BR 6  S    0.003617   0.000000   0.041906  -0.007124   0.000000
   48  BR 6  X    0.016500   0.000000  -0.058480  -0.003615   0.000000
   49  BR 6  Y    0.056520   0.000000   0.055654  -0.004987   0.000000
   50  BR 6  Z    0.000000  -0.059576   0.000000   0.000000   0.006037
   51  BR 6  S   -0.003424   0.000000  -0.149493  -0.019917   0.000000
   52  BR 6  X   -0.051214   0.000000   0.182938   0.010784   0.000000
   53  BR 6  Y   -0.175873   0.000000  -0.173881   0.015631   0.000000
   54  BR 6  Z    0.000000   0.185805   0.000000   0.000000  -0.020035
   55  BR 6 XX   -0.001419   0.000000   0.005736   0.011553   0.000000
   56  BR 6 YY    0.000498   0.000000   0.008742  -0.007302   0.000000
   57  BR 6 ZZ   -0.002749   0.000000  -0.007194   0.005271   0.000000
   58  BR 6 XY   -0.000828   0.000000  -0.034473  -0.005657   0.000000
   59  BR 6 XZ    0.000000   0.027464   0.000000   0.000000   0.016569
   60  BR 6 YZ    0.000000  -0.028639   0.000000   0.000000  -0.011306
   61  BR 6  S    0.016370   0.000000   0.111449  -0.061152   0.000000
   62  BR 6  X    0.077727   0.000000  -0.281632   0.002527   0.000000
   63  BR 6  Y    0.275044   0.000000   0.260461  -0.025615   0.000000
   64  BR 6  Z    0.000000  -0.277561   0.000000   0.000000   0.066692
   65  BR 6  S    0.006949   0.000000   0.686556   0.131958   0.000000
   66  BR 6  X    0.077715   0.000000  -0.654270  -0.168250   0.000000
   67  BR 6  Y    0.270794   0.000000   0.677344  -0.024629   0.000000
   68  BR 6  Z    0.000000  -0.603011   0.000000   0.000000  -0.206056
   69  H  7  S    0.022825  -0.039923  -0.015290   0.093576  -0.040097
   70  H  7  S    0.031553  -0.089041  -0.026066   0.972550  -0.597101
   71  H  8  S    0.022825   0.039923  -0.015290   0.093576   0.040097
   72  H  8  S    0.031553   0.089041  -0.026066   0.972550   0.597101
   73  H  9  S    0.089903   0.039460  -0.035593   0.071378   0.039301
   74  H  9  S    0.080809   0.059166  -0.057129   0.650544   0.016157
   75  H 10  S    0.089903  -0.039460  -0.035593   0.071378  -0.039301
   76  H 10  S    0.080809  -0.059166  -0.057129   0.650544  -0.016157
   77  H 11  S   -0.127250  -0.053831   0.050377  -0.030962   0.052462
   78  H 11  S   -0.128119  -0.132497   0.169715  -0.071910   0.220663
   79  H 12  S   -0.127250   0.053831   0.050377  -0.030962  -0.052462
   80  H 12  S   -0.128119   0.132497   0.169715  -0.071910  -0.220663
   81  H 13  S   -0.192174   0.000000  -0.006135   0.046810   0.000000
   82  H 13  S   -0.189593   0.000000   0.043033   0.458933   0.000000
   83  H 14  S    0.060753   0.000000   0.032752  -0.013690   0.000000
   84  H 14  S    0.037510   0.000000   0.129631  -0.017526   0.000000

                     41         42         43         44         45
                   -0.0249    -0.0132    -0.0094     0.0018     0.0095
[...]
          MULLIKEN AND LOWDIN POPULATION ANALYSES
          ---------------------------------------

     ATOMIC MULLIKEN POPULATION IN EACH MOLECULAR ORBITAL

                      1          2          3          4          5

                  2.000000   2.000000   2.000000   2.000000   2.000000

    1            -0.000000  -0.000016  -0.000000   0.000000  -0.000000
    2            -0.000000  -0.000016  -0.000000   0.000000  -0.000000
    3             0.000000  -0.000001  -0.000001  -0.000000  -0.000000
    4             0.000000  -0.000001  -0.000001  -0.000000  -0.000000
    5             0.000000  -0.000000  -0.000000   0.000000  -0.000000
    6             2.000000   2.000034   2.000003   2.000000   2.000001
    7             0.000000  -0.000000   0.000000   0.000000  -0.000000
    8             0.000000  -0.000000   0.000000   0.000000  -0.000000
    9             0.000000  -0.000000  -0.000000  -0.000000  -0.000000
   10             0.000000  -0.000000  -0.000000  -0.000000  -0.000000
   11             0.000000  -0.000000  -0.000000  -0.000000   0.000000
   12             0.000000  -0.000000  -0.000000  -0.000000   0.000000
   13             0.000000  -0.000000   0.000000   0.000000   0.000000
   14             0.000000  -0.000000  -0.000000   0.000000  -0.000000

                      6          7          8          9         10

                  2.000000   2.000000   2.000000   2.000000   2.000000

    1             0.996664   0.994521   0.003608   0.003210   0.000068
    2             0.996664   0.994521   0.003608   0.003210   0.000068
    3             0.002652   0.003267   0.991646   0.989892   0.005436
    4             0.002652   0.003267   0.991646   0.989892   0.005436
    5            -0.000015   0.000017   0.003455   0.007384   1.982549
    6             0.000195   0.001872   0.000004   0.000021   0.000001
    7             0.000530   0.001215   0.000017   0.000022   0.000002
    8             0.000530   0.001215   0.000017   0.000022   0.000002
    9             0.000054   0.000027   0.001822   0.001490   0.000028
   10             0.000054   0.000027   0.001822   0.001490   0.000028
   11             0.000011   0.000028   0.001178   0.001659   0.000009
   12             0.000011   0.000028   0.001178   0.001659   0.000009
   13             0.000000   0.000000   0.000000   0.000002   0.003063
   14             0.000000  -0.000007   0.000000   0.000045   0.003301

                     11         12         13         14         15

                  2.000000   2.000000   2.000000   2.000000   2.000000

    1             0.000141  -0.000012  -0.000005  -0.000001   0.001875
    2             0.000141  -0.000012  -0.000005  -0.000001   0.001875
    3             0.000011   0.000012   0.000004   0.000002  -0.000102
    4             0.000011   0.000012   0.000004   0.000002  -0.000102
    5             0.000002   0.000001  -0.000000   0.000002   0.000017
    6             1.999690   1.999997   2.000002   1.999990   1.996395
    7             0.000001   0.000001  -0.000000   0.000002   0.000022
    8             0.000001   0.000001  -0.000000   0.000002   0.000022
    9             0.000000   0.000000   0.000000   0.000000  -0.000000
   10             0.000000   0.000000   0.000000   0.000000  -0.000000
   11             0.000000  -0.000000   0.000000  -0.000000   0.000000
   12             0.000000  -0.000000   0.000000  -0.000000   0.000000
   13             0.000000   0.000000   0.000000   0.000000  -0.000000
   14             0.000002   0.000000   0.000000   0.000003  -0.000002

                     16         17         18         19         20

                  2.000000   2.000000   2.000000   2.000000   2.000000

    1             0.001569   0.000489   0.000231   0.000180   0.630455
    2             0.001569   0.000489   0.000231   0.000180   0.630455
    3            -0.000118  -0.000095  -0.000040  -0.000009   0.135272
    4            -0.000118  -0.000095  -0.000040  -0.000009   0.135272
    5             0.000015   0.000011   0.000001  -0.000006   0.102451
    6             1.996988   1.999292   1.999679   1.999668   0.347554
    7             0.000045  -0.000048  -0.000031  -0.000006   0.013125
    8             0.000045  -0.000048  -0.000031  -0.000006   0.013125
    9            -0.000000   0.000000  -0.000000  -0.000000  -0.002800
   10            -0.000000   0.000000  -0.000000  -0.000000  -0.002800
   11             0.000004  -0.000003  -0.000001   0.000001  -0.000505
   12             0.000004  -0.000003  -0.000001   0.000001  -0.000505
   13             0.000000  -0.000000   0.000000  -0.000000  -0.001049
   14             0.000000   0.000011   0.000000   0.000006  -0.000050

                     21         22         23         24         25

                  2.000000   2.000000   2.000000   2.000000   2.000000

    1             0.069719   0.319119   0.319100   0.184169   0.439802
    2             0.069719   0.319119   0.319100   0.184169   0.439802
    3             0.278418   0.571437   0.094426   0.296986   0.251139
    4             0.278418   0.571437   0.094426   0.296986   0.251139
    5             0.309110   0.030871   0.453878   0.598710   0.075280
    6             0.938707   0.005785   0.574387   0.071685   0.029845
    7             0.000387   0.029329   0.033971   0.002840   0.181280
    8             0.000387   0.029329   0.033971   0.002840   0.181280
    9             0.011445   0.025653   0.003389   0.050102   0.034042
   10             0.011445   0.025653   0.003389   0.050102   0.034042
   11             0.006291   0.036134   0.006000   0.038693   0.041173
   12             0.006291   0.036134   0.006000   0.038693   0.041173
   13             0.012251   0.000000   0.031225   0.088501   0.000000
   14             0.007414   0.000000   0.026738   0.095524   0.000000

                     26         27         28         29         30

                  2.000000   2.000000   2.000000   2.000000   2.000000

    1             0.558334   0.173947   0.339322   0.111331   0.421428
    2             0.558334   0.173947   0.339322   0.111331   0.421428
    3             0.121596   0.391944   0.259702   0.499691   0.347879
    4             0.121596   0.391944   0.259702   0.499691   0.347879
    5             0.135225   0.277326   0.145809   0.051053   0.049489
    6             0.033899   0.166564   0.267974   0.141228   0.000094
    7             0.163188   0.000390   0.051240   0.002932   0.120470
    8             0.163188   0.000390   0.051240   0.002932   0.120470
    9             0.024125   0.060979   0.050769   0.198324   0.022119
   10             0.024125   0.060979   0.050769   0.198324   0.022119
   11             0.023668   0.092669   0.057003   0.091582   0.063313
   12             0.023668   0.092669   0.057003   0.091582   0.063313
   13             0.040925   0.033761   0.018577   0.000000   0.000000
   14             0.008129   0.082489   0.051570   0.000000   0.000000

                     31         32         33         34         35

                  2.000000   2.000000   2.000000   2.000000   2.000000

    1             0.398893   0.154252   0.019991   0.099468   0.023756
    2             0.398893   0.154252   0.019991   0.099468   0.023756
    3             0.093036   0.193401   0.535053   0.092666   0.214519
    4             0.093036   0.193401   0.535053   0.092666   0.214519
    5             0.327173   0.793612   0.553023   0.040985   0.416353
    6             0.377798   0.064785   0.046718   1.410854   0.282078
    7             0.017797   0.017662   0.003688   0.018385   0.000275
    8             0.017797   0.017662   0.003688   0.018385   0.000275
    9             0.003731   0.000850   0.001089   0.062180   0.158077
   10             0.003731   0.000850   0.001089   0.062180   0.158077
   11             0.044083   0.002908   0.140310   0.001381   0.066559
   12             0.044083   0.002908   0.140310   0.001381   0.066559
   13             0.012475   0.388519   0.000000   0.000000   0.101807
   14             0.167475   0.014936   0.000000   0.000000   0.273387

                     36

                  2.000000

    1             0.018287
    2             0.018287
    3             0.022682
    4             0.022682
    5             0.052960
    6             1.826980
    7             0.009872
    8             0.009872
    9             0.001458
   10             0.001458
   11             0.000290
   12             0.000290
   13             0.000052
   14             0.014831

               ----- POPULATIONS IN EACH AO -----
                             MULLIKEN      LOWDIN
              1  C  1  S      1.98822     1.97624
              2  C  1  S      0.38822     0.46512
              3  C  1  X      0.36052     0.33860
              4  C  1  Y      0.59099     0.56461
              5  C  1  Z      0.60793     0.58123
              6  C  1  S      1.13040     0.59857
              7  C  1  X      0.46440     0.48889
              8  C  1  Y      0.45200     0.52495
              9  C  1  Z      0.30121     0.49786
             10  C  2  S      1.98822     1.97624
             11  C  2  S      0.38822     0.46512
             12  C  2  X      0.36052     0.33860
             13  C  2  Y      0.59099     0.56461
             14  C  2  Z      0.60793     0.58123
             15  C  2  S      1.13040     0.59857
             16  C  2  X      0.46440     0.48889
             17  C  2  Y      0.45200     0.52495
             18  C  2  Z      0.30121     0.49786
             19  C  3  S      1.98774     1.97419
             20  C  3  S      0.36326     0.42428
             21  C  3  X      0.57862     0.54368
             22  C  3  Y      0.51482     0.49089
             23  C  3  Z      0.58578     0.55779
             24  C  3  S      1.11120     0.56390
             25  C  3  X      0.54748     0.57941
             26  C  3  Y      0.27368     0.49049
             27  C  3  Z      0.42983     0.54390
             28  C  4  S      1.98774     1.97419
             29  C  4  S      0.36326     0.42428
             30  C  4  X      0.57862     0.54368
             31  C  4  Y      0.51482     0.49089
             32  C  4  Z      0.58578     0.55779
             33  C  4  S      1.11120     0.56390
             34  C  4  X      0.54748     0.57941
             35  C  4  Y      0.27368     0.49049
             36  C  4  Z      0.42983     0.54390
             37  C  5  S      1.98753     1.97422
             38  C  5  S      0.36041     0.42167
             39  C  5  X      0.58040     0.54646
             40  C  5  Y      0.57740     0.54890
             41  C  5  Z      0.50620     0.48278
             42  C  5  S      1.10930     0.56784
             43  C  5  X      0.49177     0.56835
             44  C  5  Y      0.49577     0.55856
             45  C  5  Z      0.29796     0.49410
             46  BR 6  S      2.00018     1.99972
             47  BR 6  S      2.00433     1.98146
             48  BR 6  X      1.99591     1.99413
             49  BR 6  Y      1.99647     1.99523
             50  BR 6  Z      1.99641     1.99503
             51  BR 6  S      2.06765     0.94767
             52  BR 6  X      1.98260     1.91880
             53  BR 6  Y      1.98681     1.93765
             54  BR 6  Z      1.98596     1.93368
             55  BR 6 XX      1.30680     1.68888
             56  BR 6 YY      1.30883     1.68713
             57  BR 6 ZZ      1.30907     1.68707
             58  BR 6 XY      1.99791     1.99850
             59  BR 6 XZ      1.99781     1.99838
             60  BR 6 YZ      1.99910     1.99941
             61  BR 6  S      0.90412     0.96556
             62  BR 6  X      0.65867     0.66915
             63  BR 6  Y      0.86249     0.88155
             64  BR 6  Z      0.82123     0.83569
             65  BR 6  S      1.07164     0.94363
             66  BR 6  X      0.57877     0.68882
             67  BR 6  Y      0.91715     0.96390
             68  BR 6  Z      0.83087     0.89648
             69  H  7  S      0.45957     0.45247
             70  H  7  S      0.20903     0.38121
             71  H  8  S      0.45957     0.45247
             72  H  8  S      0.20903     0.38121
             73  H  9  S      0.45103     0.45193
             74  H  9  S      0.25792     0.39529
             75  H 10  S      0.45103     0.45193
             76  H 10  S      0.25792     0.39529
             77  H 11  S      0.45996     0.45762
             78  H 11  S      0.25448     0.39755
             79  H 12  S      0.45996     0.45762
             80  H 12  S      0.25448     0.39755
             81  H 13  S      0.46463     0.46423
             82  H 13  S      0.26548     0.40342
             83  H 14  S      0.46627     0.46947
             84  H 14  S      0.27953     0.41117

          ----- MULLIKEN ATOMIC OVERLAP POPULATIONS -----
          (OFF-DIAGONAL ELEMENTS NEED TO BE MULTIPLIED BY 2)

             1           2           3           4           5

    1    5.7877068
    2    0.1311939   5.7877068
    3    0.2076271  -0.1080771   5.4941151
    4   -0.1080771   0.2076271  -0.0702513   5.4941151
    5   -0.0847565  -0.0847565   0.2590845   0.2590845   5.4157453
    6    0.0821396   0.0821396  -0.0356852  -0.0356852   0.0043905
    7    0.3689708  -0.0305524  -0.0180674   0.0020195   0.0024995
    8   -0.0305524   0.3689708   0.0020195  -0.0180674   0.0024995
    9   -0.0448540   0.0020857   0.3532335   0.0016081  -0.0340075
   10    0.0020857  -0.0448540   0.0016081   0.3532335  -0.0340075
   11   -0.0355439   0.0039102   0.3734533   0.0029877  -0.0258023
   12    0.0039102  -0.0355439   0.0029877   0.3734533  -0.0258023
   13    0.0036786   0.0036786  -0.0303606  -0.0303606   0.3809496
   14    0.0003640   0.0003640  -0.0392821  -0.0392821   0.3716175

             6           7           8           9          10

    6   34.5030387
    7   -0.0123814   0.3585781
    8   -0.0123814  -0.0002665   0.3585781
    9    0.0021743  -0.0016278  -0.0000688   0.4460560
   10    0.0021743  -0.0000688  -0.0016278   0.0008624   0.4460560
   11   -0.0030743  -0.0003893  -0.0000211  -0.0155614  -0.0000732
   12   -0.0030743  -0.0000211  -0.0003893  -0.0000732  -0.0155614
   13    0.0000212  -0.0000273  -0.0000273  -0.0032519  -0.0032519
   14    0.0069726  -0.0000628  -0.0000628   0.0023779   0.0023779

            11          12          13          14

   11    0.4169200
   12   -0.0000393   0.4169200
   13    0.0004529   0.0004529   0.4265830
   14   -0.0027813  -0.0027813  -0.0184285   0.4644086

          TOTAL MULLIKEN AND LOWDIN ATOMIC POPULATIONS
       ATOM         MULL.POP.    CHARGE          LOW.POP.     CHARGE
    1 C             6.283893   -0.283893         6.036060   -0.036060
    2 C             6.283893   -0.283893         6.036060   -0.036060
    3 C             6.392405   -0.392405         6.168533   -0.168533
    4 C             6.392405   -0.392405         6.168533   -0.168533
    5 C             6.406738   -0.406738         6.162893   -0.162893
    6 BR           34.580769    0.419231        34.607504    0.392496
    7 H             0.668603    0.331397         0.833674    0.166326
    8 H             0.668603    0.331397         0.833674    0.166326
    9 H             0.708953    0.291047         0.847215    0.152785
   10 H             0.708953    0.291047         0.847215    0.152785
   11 H             0.714438    0.285562         0.855170    0.144830
   12 H             0.714438    0.285562         0.855170    0.144830
   13 H             0.730108    0.269892         0.867654    0.132346
   14 H             0.745801    0.254199         0.880643    0.119357

          -------------------------------
          BOND ORDER AND VALENCE ANALYSIS     BOND ORDER THRESHOLD=0.050
          -------------------------------

                   BOND                       BOND                       BOND
  ATOM PAIR DIST  ORDER      ATOM PAIR DIST  ORDER      ATOM PAIR DIST  ORDER
    1   2  1.472  0.967        1   3  1.505  0.924        1   6  2.155  0.710
    1   7  1.085  0.861        2   4  1.505  0.924        2   6  2.155  0.710
    2   8  1.085  0.861        3   5  1.559  0.911        3   9  1.104  0.840
    3  11  1.092  0.879        4   5  1.559  0.911        4  10  1.104  0.840
    4  12  1.092  0.879        5  13  1.091  0.899        5  14  1.093  0.890

                       TOTAL       BONDED        FREE
      ATOM            VALENCE     VALENCE     VALENCE
    1 C                 3.456       3.456      -0.000
    2 C                 3.456       3.456      -0.000
    3 C                 3.544       3.544       0.000
    4 C                 3.544       3.544       0.000
    5 C                 3.593       3.593      -0.000
    6 BR                1.546       1.546      -0.000
    7 H                 0.869       0.869       0.000
    8 H                 0.869       0.869       0.000
    9 H                 0.873       0.873      -0.000
   10 H                 0.873       0.873      -0.000
   11 H                 0.887       0.887       0.000
   12 H                 0.887       0.887       0.000
   13 H                 0.895       0.895       0.000
   14 H                 0.898       0.898      -0.000

          ---------------------
          ELECTROSTATIC MOMENTS
          ---------------------

 POINT   1           X           Y           Z (BOHR)    CHARGE
                 0.572938    0.333327    0.000000        1.00 (A.U.)
         DX          DY          DZ         /D/  (DEBYE)
    -3.450199    1.847714   -0.000000    3.913812
 ...... END OF PROPERTY EVALUATION ......
 STEP CPU TIME =     0.03 TOTAL CPU TIME =        383.8 (      6.4 MIN)
 TOTAL WALL CLOCK TIME=        386.2 SECONDS, CPU UTILIZATION IS    99.39%
  $VIB   
          IVIB=   0 IATOM=   0 ICOORD=   0 E=    -2755.5162689732
  5.531629119E-05 8.505084669E-05-8.359804984E-07 5.531629119E-05 8.505084669E-05
  8.359804984E-07-1.235613508E-04 1.120666164E-04-1.186590337E-04-1.235613508E-04
  1.120666164E-04 1.186590337E-04 1.375688178E-04-8.466652053E-05 0.000000000E+00
  6.608160049E-05-4.815095658E-05 0.000000000E+00-9.303085816E-06-6.066212055E-05
  2.853963207E-05-9.303085816E-06-6.066212055E-05-2.853963207E-05-3.375878041E-05
  3.512478082E-05 2.430780094E-05-3.375878041E-05 3.512478082E-05-2.430780094E-05
  1.167253322E-04-3.355601599E-05 1.432983836E-05 1.167253322E-04-3.355601599E-05
 -1.432983836E-05-7.328194430E-05-7.140516052E-06 0.000000000E+00-1.412052868E-04
 -1.360902217E-04 0.000000000E+00
 -3.450199143E+00 1.847714412E+00-2.709050051E-14
 ......END OF GEOMETRY SEARCH......
 STEP CPU TIME =     0.00 TOTAL CPU TIME =        383.8 (      6.4 MIN)
 TOTAL WALL CLOCK TIME=        386.2 SECONDS, CPU UTILIZATION IS    99.38%
               1085826  WORDS OF DYNAMIC MEMORY USED
 EXECUTION OF GAMESS TERMINATED NORMALLY Sat Oct 29 22:34:34 2022
 DDI: 263640 bytes (0.3 MB / 0 MWords) used by master data server.

 ----------------------------------------
 CPU timing information for all processes
 ========================================
 0: 382.41 + 1.764 = 383.806
 ----------------------------------------
 ddikick.x: exited gracefully.
----- accounting info -----
Files used on the master node chemcompute-node-0.novalocal were:
-rw-r--r--. 1 chemcomp chemcomp      871 Oct 29 22:28 /scratch/141145/483184.F05
-rw-rw-r--. 1 chemcomp chemcomp 57344000 Oct 29 22:34 /scratch/141145/483184.F10
-rw-rw-r--. 1 chemcomp chemcomp  6984656 Oct 29 22:34 /scratch/141145/483184.F22
Sat Oct 29 22:34:37 UTC 2022
0.103u 0.035s 6:29.52 0.0%	0+0k 8+208io 0pf+0w
Finishing Up...
Looking for IR data...
Looking for Raman data...
vibramans not found
Looking for thermodynamics data...
Looking for UV-Vis data...
chemcompute.org
{'UTCtimestamp': '2022-10-29T22:34:39.022819', 'cluster': 'jetstream2', 'clusterJobNumber': '141145', 'status': 'COMPLETE', 'nodeList': 'chemcompute-node-0'}
141145
