chemcompute.org
{'UTCtimestamp': '2022-10-29T04:53:33.604256', 'cluster': 'jetstream2', 'clusterJobNumber': '141027', 'status': 'RUNNING', 'nodeList': 'chemcompute-node-0'}
----- GAMESS execution script 'rungms' -----
This job is running on host chemcompute-node-0.novalocal
under operating system Linux at Sat Oct 29 04:53:37 UTC 2022
SLURM has assigned the following compute nodes to this run:
Available scratch disk space (Kbyte units) at beginning of the job is
Filesystem     1K-blocks     Used Available Use% Mounted on
/dev/sda1       62903276 11626508  51276768  19% /
GAMESS temporary binary files will be written to /scratch/141027
GAMESS supplementary output files will be written to /data/slurm/48/483061
Copying input file 483061.inp to your run's scratch directory...
The generated host list is
chemcompute-node-0.novalocal

 Distributed Data Interface kickoff program.
 Initiating 1 compute processes on 1 nodes to run the following command:
 /data/gamess-2019R1-avx2-ddi/gamess.00.x 483061 

          ******************************************************
          *         GAMESS VERSION = 30 JUN 2019 (R1)          *
          *             FROM IOWA STATE UNIVERSITY             *
          * M.W.SCHMIDT, K.K.BALDRIDGE, J.A.BOATZ, S.T.ELBERT, *
          *   M.S.GORDON, J.H.JENSEN, S.KOSEKI, N.MATSUNAGA,   *
          *          K.A.NGUYEN, S.J.SU, T.L.WINDUS,           *
          *       TOGETHER WITH M.DUPUIS, J.A.MONTGOMERY       *
          *         J.COMPUT.CHEM.  14, 1347-1363(1993)        *
          **************** 64 BIT INTEL VERSION ****************

  SINCE 1993, STUDENTS AND POSTDOCS WORKING AT IOWA STATE UNIVERSITY
  AND ALSO IN THEIR VARIOUS JOBS AFTER LEAVING ISU HAVE MADE IMPORTANT
  CONTRIBUTIONS TO THE CODE:
     IVANA ADAMOVIC, CHRISTINE AIKENS, YURI ALEXEEV, POOJA ARORA,
     ANDREY ASADCHEV, ROB BELL, PRADIPTA BANDYOPADHYAY, JONATHAN BENTZ,
     COLLEEN BERTONI, BRETT BODE, KURT BRORSEN, CALEB CARLIN, GALINA CHABAN,
     WEI CHEN, CHEOL HO CHOI, PAUL DAY, ALBERT DEFUSCO, NUWAN DESILVA,
     TIM DUDLEY, DMITRI FEDOROV, ALEX FINDLATER, GRAHAM FLETCHER, 
     MARK FREITAG, KURT GLAESEMANN, ANASTASIA GUNINA,
     DAN KEMP, GRANT MERRILL, NORIYUKI MINEZAWA, JONATHAN MULLIN,
     TAKESHI NAGATA, SEAN NEDD, HEATHER NETZLOFF, BOSILJKA NJEGIC, RYAN OLSON,
     MIKE PAK, BUU PHAM,
     SPENCER PRUITT, LUKE ROSKOP, JIM SHOEMAKER, LYUDMILA SLIPCHENKO,
     TONY SMITH, SAROM SOK LEANG, JIE SONG, TETSUYA TAKETSUGU, SIMON WEBB,
     PENG XU, SOOHAENG YOO, FEDERICO ZAHARIEV

  ADDITIONAL CODE HAS BEEN PROVIDED BY COLLABORATORS IN OTHER GROUPS:
     IOWA STATE UNIVERSITY:
          JOE IVANIC, AARON WEST, LAIMUTIS BYTAUTAS, KLAUS RUEDENBERG
     UNIVERSITY OF TOKYO: KIMIHIKO HIRAO, TAKAHITO NAKAJIMA,
          TAKAO TSUNEDA, MUNEAKI KAMIYA, SUSUMU YANAGISAWA,
          KIYOSHI YAGI, MAHITO CHIBA, SEIKEN TOKURA, NAOAKI KAWAKAMI
     UNIVERSITY OF AARHUS: FRANK JENSEN
     UNIVERSITY OF IOWA: VISVALDAS KAIRYS, HUI LI
     NATIONAL INST. OF STANDARDS AND TECHNOLOGY: WALT STEVENS, DAVID GARMER
     UNIVERSITY OF PISA: BENEDETTA MENNUCCI, JACOPO TOMASI
     UNIVERSITY OF MEMPHIS: HENRY KURTZ, PRAKASHAN KORAMBATH
     UNIVERSITY OF ALBERTA: TOBY ZENG, MARIUSZ KLOBUKOWSKI
     UNIVERSITY OF NEW ENGLAND: MARK SPACKMAN
     MIE UNIVERSITY: HIROAKI UMEDA
     NAT. INST. OF ADVANCED INDUSTRIAL SCIENCE AND TECHNOLOGY: KAZUO KITAURA
     MICHIGAN STATE UNIVERSITY:
          KAROL KOWALSKI, MARTA WLOCH, JEFFREY GOUR, JESSE LUTZ,
          WEI LI, JUN SHEN, J. EMILIANO DEUSTUA, PIOTR PIECUCH
     UNIVERSITY OF MINNESOTA:
          YINAN SHU
     UNIVERSITY OF SILESIA: MONIKA MUSIAL, STANISLAW KUCHARSKI
     FACULTES UNIVERSITAIRES NOTRE-DAME DE LA PAIX:
          OLIVIER QUINET, BENOIT CHAMPAGNE
     UNIVERSITY OF CALIFORNIA - SANTA BARBARA: BERNARD KIRTMAN
     INSTITUTE FOR MOLECULAR SCIENCE:
          KAZUYA ISHIMURA, MICHIO KATOUDA, AND SHIGERU NAGASE
     UNIVERSITY OF NOTRE DAME: ANNA POMOGAEVA, DAN CHIPMAN
     KYUSHU UNIVERSITY:
          HARUYUKI NAKANO,
          FENG LONG GU, JACEK KORCHOWIEC, MARCIN MAKOWSKI, AND YURIKO AOKI,
          HIROTOSHI MORI AND EISAKU MIYOSHI
     PENNSYLVANIA STATE UNIVERSITY:
          TZVETELIN IORDANOV, CHET SWALINA, JONATHAN SKONE,
          SHARON HAMMES-SCHIFFER
     WASEDA UNIVERSITY:
          MASATO KOBAYASHI, TOMOKO AKAMA, TSUGUKI TOUMA,
          TAKESHI YOSHIKAWA, YASUHIRO IKABATA, JUNJI SEINO,
          YUYA NAKAJIMA, HIROMI NAKAI
     NANJING UNIVERSITY: SHUHUA LI
     UNIVERSITY OF NEBRASKA:
          PEIFENG SU, DEJUN SI, NANDUN THELLAMUREGE, YALI WANG, HUI LI
     UNIVERSITY OF ZURICH: ROBERTO PEVERATI, KIM BALDRIDGE
     N. COPERNICUS UNIVERSITY AND JACKSON STATE UNIVERSITY:
          MARIA BARYSZ
     UNIVERSITY OF COPENHAGEN: Jimmy Kromann, CASPER STEINMANN
     TOKYO INSTITUTE OF TECHNOLOGY: HIROYA NAKATA
     NAGOYA UNIVERSITY: YOSHIO NISHIMOTO, STEPHAN IRLE
     MOSCOW STATE UNIVERSITY: VLADIMIR MIRONOV
     A.N.NESMEYANOV INSTITUTE OF ORGANOELEMENT COMPOUNDS OF RUSSIAN ACADEMY OF SCIENCES:
          IGOR S. GERASIMOV

 EXECUTION OF GAMESS BEGUN Sat Oct 29 04:53:37 2022

            ECHO OF THE FIRST FEW INPUT CARDS -
 INPUT CARD>!                                                                               
 INPUT CARD>!   GAMESS Calculation input file                                               
 INPUT CARD>!                                                                               
 INPUT CARD>!                                                                               
 INPUT CARD> $CONTRL SCFTYP=RHF MAXIT=200 RUNTYP=OPTIMIZE                                   
 INPUT CARD>         COORD=UNIQUE MULT=1                                                    
 INPUT CARD>         ICHARG=0                                                               
 INPUT CARD>         DFTTYP=B3LYP                                                           
 INPUT CARD>         MOLPLT=.FALSE. PLTORB=.FALSE.  $END                                    
 INPUT CARD> $SYSTEM TIMLIM=2879 MWORDS=250  $END                                           
 INPUT CARD>                                                                                
 INPUT CARD> $FORCE METHOD=SEMINUM NVIB=2 $END                                              
 INPUT CARD> $STATPT OPTTOL=0.0005 NSTEP=999 $END                                           
 INPUT CARD> $STATPT IHREP=0 HSSEND=.TRUE.  $END                                            
 INPUT CARD>                                                                                
 INPUT CARD> $DFT    METHOD=GRID  NLEB=590  $END                                            
 INPUT CARD>                                                                                
 INPUT CARD> $BASIS  GBASIS=N21 NGAUSS=3 $END                                               
 INPUT CARD>                                                                                
 INPUT CARD> $SCF    DIRSCF=.T. $END                                                        
 INPUT CARD> $GUESS  GUESS=HUCKEL  $END                                                     
 INPUT CARD>                                                                                
 INPUT CARD> $DATA                                                                          
 INPUT CARD>                                                                                
 INPUT CARD>  Cs                                                                            
 INPUT CARD>                                                                                
 INPUT CARD>C     6.0    -0.37    -0.30     0.00                                            
 INPUT CARD>C     6.0     0.78    -1.00    -0.00                                            
 INPUT CARD>C     6.0    -0.40     1.19    -0.00                                            
 INPUT CARD>H     1.0    -1.32    -0.83     0.00                                            
 INPUT CARD>H     1.0     1.74    -0.49    -0.00                                            
 INPUT CARD>H     1.0     0.78    -2.08     0.00                                            
 INPUT CARD>H     1.0     0.09     1.59    -0.89                                            
 INPUT CARD>H     1.0    -1.44     1.54     0.00                                            
 INPUT CARD> $END                                                                           
 INPUT CARD>                                                                                
 INPUT CARD>                                                                                
 INPUT CARD>! Customizations after this line are persisted when using Do More Calculations  
  250000000 WORDS OF MEMORY AVAILABLE

     BASIS OPTIONS
     -------------
     GBASIS=N21          IGAUSS=       3      POLAR=NONE    
     NDFUNC=       0     NFFUNC=       0     DIFFSP=       F
     NPFUNC=       0      DIFFS=       F     BASNAM=        


     RUN TITLE
     ---------
                                                                                 

 THE POINT GROUP OF THE MOLECULE IS CS      
 THE ORDER OF THE PRINCIPAL AXIS IS     0

 ATOM      ATOMIC                      COORDINATES (BOHR)
           CHARGE         X                   Y                   Z
 C           6.0    -0.6991986155       -0.5669177963        0.0000000000
 C           6.0     1.4739862704       -1.8897259877        0.0000000000
 C           6.0    -0.7558903951        2.2487739254        0.0000000000
 H           1.0    -2.4944383038       -1.5684725698        0.0000000000
 H           1.0     3.2881232186       -0.9259657340        0.0000000000
 H           1.0     1.4739862704       -3.9306300545        0.0000000000
 H           1.0     0.1700753389        3.0046643205        1.6818561291
 H           1.0     0.1700753389        3.0046643205       -1.6818561291
 H           1.0    -2.7212054223        2.9101780211        0.0000000000

          INTERNUCLEAR DISTANCES (ANGS.)
          ------------------------------

                1 C          2 C          3 C          4 H          5 H     

   1 C       0.0000000    1.3462912 *  1.4903020 *  1.0878419 *  2.1185372 *
   2 C       1.3462912 *  0.0000000    2.4876696 *  2.1068697 *  1.0870603 *
   3 C       1.4903020 *  2.4876696 *  0.0000000    2.2196396 *  2.7206617 *
   4 H       1.0878419 *  2.1068697 *  2.2196396 *  0.0000000    3.0788309  
   5 H       2.1185372 *  1.0870603 *  2.7206617 *  3.0788309    0.0000000  
   6 H       2.1191744 *  1.0800000 *  3.4763918    2.4438699 *  1.8573368 *
   7 H       2.1391120 *  2.8242344 *  1.0918791 *  2.9388093 *  2.8001786 *
   8 H       2.1391120 *  2.8242344 *  1.0918791 *  2.9388093 *  2.8001786 *
   9 H       2.1284971 *  3.3734256    1.0973149 *  2.3730360 *  3.7727046  

                6 H          7 H          8 H          9 H     

   1 C       2.1191744 *  2.1391120 *  2.1391120 *  2.1284971 *
   2 C       1.0800000 *  2.8242344 *  2.8242344 *  3.3734256  
   3 C       3.4763918    1.0918791 *  1.0918791 *  1.0973149 *
   4 H       2.4438699 *  2.9388093 *  2.9388093 *  2.3730360 *
   5 H       1.8573368 *  2.8001786 *  2.8001786 *  3.7727046  
   6 H       0.0000000    3.8388931    3.8388931    4.2465044  
   7 H       3.8388931    0.0000000    1.7800000 *  1.7707343 *
   8 H       3.8388931    1.7800000 *  0.0000000    1.7707343 *
   9 H       4.2465044    1.7707343 *  1.7707343 *  0.0000000  

  * ... LESS THAN  3.000


     ATOMIC BASIS SET
     ----------------
 THE CONTRACTED PRIMITIVE FUNCTIONS HAVE BEEN UNNORMALIZED
 THE CONTRACTED BASIS FUNCTIONS ARE NOW NORMALIZED TO UNITY

  SHELL TYPE  PRIMITIVE        EXPONENT          CONTRACTION COEFFICIENT(S)

 C         

      1   S       1           172.2560000    0.061766907377
      1   S       2            25.9109000    0.358794042852
      1   S       3             5.5333500    0.700713083689

      2   L       4             3.6649800   -0.395895162119    0.236459946619
      2   L       5             0.7705450    1.215834355681    0.860618805716

      3   L       6             0.1958570    1.000000000000    1.000000000000

 C         

      4   S       7           172.2560000    0.061766907377
      4   S       8            25.9109000    0.358794042852
      4   S       9             5.5333500    0.700713083689

      5   L      10             3.6649800   -0.395895162119    0.236459946619
      5   L      11             0.7705450    1.215834355681    0.860618805716

      6   L      12             0.1958570    1.000000000000    1.000000000000

 C         

      7   S      13           172.2560000    0.061766907377
      7   S      14            25.9109000    0.358794042852
      7   S      15             5.5333500    0.700713083689

      8   L      16             3.6649800   -0.395895162119    0.236459946619
      8   L      17             0.7705450    1.215834355681    0.860618805716

      9   L      18             0.1958570    1.000000000000    1.000000000000

 H         

     10   S      19             5.4471780    0.156284978695
     10   S      20             0.8245472    0.904690876670

     11   S      21             0.1831916    1.000000000000

 H         

     12   S      22             5.4471780    0.156284978695
     12   S      23             0.8245472    0.904690876670

     13   S      24             0.1831916    1.000000000000

 H         

     14   S      25             5.4471780    0.156284978695
     14   S      26             0.8245472    0.904690876670

     15   S      27             0.1831916    1.000000000000

 H         

     18   S      28             5.4471780    0.156284978695
     18   S      29             0.8245472    0.904690876670

     19   S      30             0.1831916    1.000000000000

 H         

     20   S      31             5.4471780    0.156284978695
     20   S      32             0.8245472    0.904690876670

     21   S      33             0.1831916    1.000000000000

 TOTAL NUMBER OF BASIS SET SHELLS             =   21
 NUMBER OF CARTESIAN GAUSSIAN BASIS FUNCTIONS =   39
 NUMBER OF ELECTRONS                          =   24
 CHARGE OF MOLECULE                           =    0
 SPIN MULTIPLICITY                            =    1
 NUMBER OF OCCUPIED ORBITALS (ALPHA)          =   12
 NUMBER OF OCCUPIED ORBITALS (BETA )          =   12
 TOTAL NUMBER OF ATOMS                        =    9
 THE NUCLEAR REPULSION ENERGY IS       70.8143096751

 SELECTED MURRAY-HANDY-LAMING RADIAL GRID

 LEGACY BECKE'S FUZZY CELL METHOD

 SELECTED ORIGINAL BECKE'S PARTITION FUNCTION

     LEBEDEV GRID-BASED DFT OPTIONS
     ------------------------------
     DFTTYP=B3LYP   
     NRAD  =      96     NLEB  =     590
     NRAD0 =      24     NLEB0 =     110
     SWOFF =    5.00E-03 (PURE SCF -> DFT)
     SWITCH=    3.00E-04 (COARSE -> TIGHT GRID)
     THRESH=    0.00E+00 GTHRE=    1.00E+00

 GRIMME'S EMPIRICAL DISPERSION CORRECTION= F

     $CONTRL OPTIONS
     ---------------
 SCFTYP=RHF          RUNTYP=OPTIMIZE     EXETYP=RUN     
 MPLEVL=       0     CITYP =NONE         CCTYP =NONE         VBTYP =NONE    
 DFTTYP=B3LYP        TDDFT =NONE    
 MULT  =       1     ICHARG=       0     NZVAR =       0     COORD =UNIQUE  
 PP    =NONE         RELWFN=NONE         LOCAL =NONE         NUMGRD=       F
 ISPHER=      -1     NOSYM =       0     MAXIT =     200     UNITS =ANGS    
 PLTORB=       F     MOLPLT=       F     AIMPAC=       F     FRIEND=        
 NPRINT=       7     IREST =       0     GEOM  =INPUT   
 NORMF =       0     NORMP =       0     ITOL  =      20     ICUT  =       9
 INTTYP=BEST         GRDTYP=BEST         QMTTOL= 1.0E-06

     $SYSTEM OPTIONS
     ---------------
  REPLICATED MEMORY=   250000000 WORDS (ON EVERY NODE).
 DISTRIBUTED MEMDDI=           0 MILLION WORDS IN AGGREGATE,
 MEMDDI DISTRIBUTED OVER   1 PROCESSORS IS           0 WORDS/PROCESSOR.
 TOTAL MEMORY REQUESTED ON EACH PROCESSOR=   250000000 WORDS.
 TIMLIM=        2879.00 MINUTES, OR       2.0 DAYS.
 PARALL= F  BALTYP=  DLB     KDIAG=    0  COREFL= F
 MXSEQ2=     300 MXSEQ3=     150  mem10=         0

          ----------------
          PROPERTIES INPUT
          ----------------

     MOMENTS            FIELD           POTENTIAL          DENSITY
 IEMOM =       1   IEFLD =       0   IEPOT =       0   IEDEN =       0
 WHERE =COMASS     WHERE =NUCLEI     WHERE =NUCLEI     WHERE =NUCLEI  
 OUTPUT=BOTH       OUTPUT=BOTH       OUTPUT=BOTH       OUTPUT=BOTH    
 IEMINT=       0   IEFINT=       0                     IEDINT=       0
                                                       MORB  =       0
          EXTRAPOLATION IN EFFECT
          DIIS IN EFFECT
 ORBITAL PRINTING OPTION: NPREO=     1    39     2     1

     -------------------------------
     INTEGRAL TRANSFORMATION OPTIONS
     -------------------------------
     NWORD  =            0
     CUTOFF = 1.0E-09     MPTRAN =       0
     DIRTRF =       T     AOINTS =DUP     

          ----------------------
          INTEGRAL INPUT OPTIONS
          ----------------------
 NOPK  =       1 NORDER=       0 SCHWRZ=       T

     ------------------------------------------
     THE POINT GROUP IS CS , NAXIS= 0, ORDER= 2
     ------------------------------------------

     DIMENSIONS OF THE SYMMETRY SUBSPACES ARE
 A'  =   31     A'' =    8

 ..... DONE SETTING UP THE RUN .....
 STEP CPU TIME =     0.01 TOTAL CPU TIME =          0.0 (      0.0 MIN)
 TOTAL WALL CLOCK TIME=          0.0 SECONDS, CPU UTILIZATION IS    50.00%


          -----------------------------
          STATIONARY POINT LOCATION RUN
          -----------------------------

 OBTAINING INITIAL HESSIAN, HESS=GUESS   
 CARTESIAN COORDINATE OPTIMIZATION USING BADGER'S RULE FORCE CONSTANT GUESS

          PARAMETERS CONTROLLING GEOMETRY SEARCH ARE
          METHOD =QA                  UPHESS =BFGS    
          NNEG   =         0          NFRZ   =         0
          NSTEP  =       999          IFOLOW =         1
          HESS   =GUESS               RESTAR =         F
          IHREP  =         0          HSSEND =         T
          NPRT   =         0          NPUN   =         0
          OPTTOL = 5.000E-04          RMIN   = 1.500E-03
          RMAX   = 1.000E-01          RLIM   = 7.000E-02
          DXMAX  = 3.000E-01          PURIFY =         F
          MOVIE  =         F          TRUPD  =         T
          TRMAX  = 5.000E-01          TRMIN  = 5.000E-02
          ITBMAT =         5          STPT   =         F
          STSTEP = 1.000E-02          PROJCT=          T

 BEGINNING GEOMETRY SEARCH POINT NSERCH=   0 ...

 COORDINATES OF SYMMETRY UNIQUE ATOMS (ANGS)
   ATOM   CHARGE       X              Y              Z
 ------------------------------------------------------------
 C           6.0  -0.3700000000  -0.3000000000   0.0000000000
 C           6.0   0.7800000000  -1.0000000000   0.0000000000
 C           6.0  -0.4000000000   1.1900000000   0.0000000000
 H           1.0  -1.3200000000  -0.8300000000   0.0000000000
 H           1.0   1.7400000000  -0.4900000000   0.0000000000
 H           1.0   0.7800000000  -2.0800000000   0.0000000000
 H           1.0   0.0900000000   1.5900000000  -0.8900000000
 H           1.0  -1.4400000000   1.5400000000   0.0000000000
 COORDINATES OF ALL ATOMS ARE (ANGS)
   ATOM   CHARGE       X              Y              Z
 ------------------------------------------------------------
 C           6.0  -0.3700000000  -0.3000000000   0.0000000000
 C           6.0   0.7800000000  -1.0000000000   0.0000000000
 C           6.0  -0.4000000000   1.1900000000   0.0000000000
 H           1.0  -1.3200000000  -0.8300000000   0.0000000000
 H           1.0   1.7400000000  -0.4900000000   0.0000000000
 H           1.0   0.7800000000  -2.0800000000   0.0000000000
 H           1.0   0.0900000000   1.5900000000   0.8900000000
 H           1.0   0.0900000000   1.5900000000  -0.8900000000
 H           1.0  -1.4400000000   1.5400000000   0.0000000000

          ********************
          1 ELECTRON INTEGRALS
          ********************
 ...... END OF ONE-ELECTRON INTEGRALS ......
 STEP CPU TIME =     0.01 TOTAL CPU TIME =          0.0 (      0.0 MIN)
 TOTAL WALL CLOCK TIME=          0.0 SECONDS, CPU UTILIZATION IS    50.00%

          -------------
          GUESS OPTIONS
          -------------
          GUESS =HUCKEL            NORB  =       0          NORDER=       0
          MIX   =       F          PRTMO =       F          PUNMO =       F
          TOLZ  = 1.0E-08          TOLE  = 1.0E-05
          SYMDEN=       F          PURIFY=       F

 INITIAL GUESS ORBITALS GENERATED BY HUCKEL   ROUTINE.
 HUCKEL GUESS REQUIRES     19284 WORDS.

 SYMMETRIES FOR INITIAL GUESS ORBITALS FOLLOW.   BOTH SET(S).
    12 ORBITALS ARE OCCUPIED (    3 CORE ORBITALS).
     4=A'       5=A'       6=A'       7=A'       8=A''      9=A'      10=A'  
    11=A'      12=A''     13=A''     14=A'      15=A'      16=A''     17=A'  
    18=A'      19=A'      20=A'      21=A'      22=A'  
 ...... END OF INITIAL ORBITAL SELECTION ......
 STEP CPU TIME =     0.01 TOTAL CPU TIME =          0.0 (      0.0 MIN)
 TOTAL WALL CLOCK TIME=          0.0 SECONDS, CPU UTILIZATION IS    60.00%

                    ----------------------
                    AO INTEGRAL TECHNOLOGY
                    ----------------------
     S,P,L SHELL ROTATED AXIS INTEGRALS, REPROGRAMMED BY
        KAZUYA ISHIMURA (IMS) AND JOSE SIERRA (SYNSTAR).
     S,P,D,L SHELL ROTATED AXIS INTEGRALS PROGRAMMED BY
        KAZUYA ISHIMURA (INSTITUTE FOR MOLECULAR SCIENCE).
     S,P,D,F,G SHELL TO TOTAL QUARTET ANGULAR MOMENTUM SUM 5,
        ERIC PROGRAM BY GRAHAM FLETCHER (ELORET AND NASA ADVANCED
        SUPERCOMPUTING DIVISION, AMES RESEARCH CENTER).
     S,P,D,F,G,L SHELL GENERAL RYS QUADRATURE PROGRAMMED BY
        MICHEL DUPUIS (PACIFIC NORTHWEST NATIONAL LABORATORY).

          --------------------
          2 ELECTRON INTEGRALS
          --------------------

 DIRECT SCF METHOD SKIPS INTEGRAL STORAGE ON DISK.
 DIRECT TRANSFORMATION SKIPS AO INTEGRAL STORAGE ON DISK.
  ...... END OF TWO-ELECTRON INTEGRALS .....
 STEP CPU TIME =     0.00 TOTAL CPU TIME =          0.0 (      0.0 MIN)
 TOTAL WALL CLOCK TIME=          0.1 SECONDS, CPU UTILIZATION IS    50.00%

          --------------------------
             R-B3LYP SCF CALCULATION
          --------------------------

     NUCLEAR ENERGY =        70.8143096751
     MAXIT =  200     NPUNCH=    2
     EXTRAP=T  DAMP=F  SHIFT=F  RSTRCT=F  DIIS=T  DEM=F  SOSCF=F
         DENSITY MATRIX CONVERGENCE THRESHOLD=  2.00E-05
     COARSE -> FINE DFT GRID SWITCH THRESHOLD=  3.00E-04 (SWITCH IN $DFT)
                   HF -> DFT SWITCH THRESHOLD=  5.00E-03 (SWOFF IN $DFT)
     MEMORY REQUIRED FOR RHF ITERS=    654047 WORDS.

 DIRECT SCF CALCULATION, SCHWRZ=T   FDIFF=T,  DIRTHR=  0.00E+00 NITDIR=10
 SCHWARZ INEQUALITY OVERHEAD:       779 INTEGRALS, T=        0.00

 DFT CODE IS SWITCHING FROM THE FINE GRID NRAD= 96,  NLEB=  590
                      TO THE COARSE GRID NRAD0= 24, NLEB0=  110

     EXCHANGE FUNCTIONAL   =B88&HFX   
     CORRELATION FUNCTIONAL=LYP88&VWN5
     DFT THRESHOLD         =.785E-08
     GRID CHANGE THRESHOLD =.300E-03
 FOR AN EULER-MACLAURIN QUADRATURE USING  96 RADIAL POINTS:
 SMALLEST GAUSSIAN PRIMITIVE EXPONENT=        0.1831915800 OF TYPE -S-
 ON ATOM NUMBER   4 HAS RADIAL NORMALIZATION=  1.000000
  LARGEST GAUSSIAN PRIMITIVE EXPONENT=      172.2560000000 OF TYPE -S-
 ON ATOM NUMBER   1 HAS RADIAL NORMALIZATION=  1.000000
 DFT IS SWITCHED OFF, PERFORMING PURE SCF UNTIL SWOFF THRESHOLD IS REACHED.

                                                                                   NONZERO     BLOCKS
 ITER EX DEM     TOTAL ENERGY        E CHANGE  DENSITY CHANGE    DIIS ERROR      INTEGRALS    SKIPPED
   1  0  0     -116.1970495683  -116.1970495683   0.448977083   0.533228932         165628       1660
          * * *   INITIATING DIIS PROCEDURE   * * *
   2  1  0     -116.4072636254    -0.2102140572   0.084664099   0.076357436         165292       1894
   3  2  0     -116.4170377962    -0.0097741707   0.033312343   0.026147310         164473       2190
   4  3  0     -116.4186469814    -0.0016091852   0.012555696   0.006873121         163432       2504
   5  4  0     -116.4188372834    -0.0001903020   0.002757539   0.002261597         162694       2707
 CONVERGED TO SWOFF, SO DFT CALCULATION IS NOW SWITCHED ON.
          * * *   INITIATING DIIS PROCEDURE   * * *
   6  5  0     -117.1653605016    -0.7465232181   0.050980655   0.074074232         165660       1643
   7  6  0     -117.1719426369    -0.0065821353   0.031768544   0.026446339         164783       2125
   8  7  0     -117.1734477251    -0.0015050882   0.017680813   0.018044404         164056       2273
   9  8  0     -117.1745490605    -0.0011013353   0.003697893   0.007391736         163346       2486
  10  9  0     -117.1746060393    -0.0000569788   0.000419133   0.000366400         161422       3074
  11 10  0     -117.1746062962    -0.0000002569   0.000201359   0.000189205         157603       3729
 DFT CODE IS SWITCHING BACK TO THE FINE GRID
          * * *   INITIATING DIIS PROCEDURE   * * *
  12 11  0     -117.1756834852    -0.0010771890   0.002214224   0.000447981         165676       1624
  13 12  0     -117.1756849546    -0.0000014694   0.000214966   0.000103666         160578       3154
  14 13  0     -117.1756849469     0.0000000077   0.000140028   0.000162851         156119       4044
  15 14  0     -117.1756849872    -0.0000000403   0.000031189   0.000058381         154712       4435
  16 15  0     -117.1756849907    -0.0000000035   0.000006923   0.000008324         151576       5060
  17 16  0     -117.1756849908    -0.0000000002   0.000000924   0.000001096         148228       5589

          -----------------
          DENSITY CONVERGED
          -----------------
     TIME TO FORM FOCK OPERATORS=       4.0 SECONDS (       0.2 SEC/ITER)
     FOCK TIME ON FIRST ITERATION=       0.0, LAST ITERATION=       0.6
     TIME TO SOLVE SCF EQUATIONS=       0.1 SECONDS (       0.0 SEC/ITER)

 FINAL R-B3LYP ENERGY IS     -117.1756849908 AFTER  17 ITERATIONS
 DFT EXCHANGE + CORRELATION ENERGY =       -14.8292170081
 TOTAL ELECTRON NUMBER             =        23.9999918202

          ------------
          EIGENVECTORS
          ------------

                      1          2          3          4          5
                  -10.1185   -10.1077   -10.1035    -0.7809    -0.6772
                     A'         A'         A'         A'         A'  
    1  C  1  S    0.984496   0.035554   0.036581  -0.162111   0.036228
    2  C  1  S    0.108392   0.001880  -0.000302   0.173187  -0.038746
    3  C  1  X    0.000734   0.000143  -0.002682   0.055854  -0.093152
    4  C  1  Y    0.000483  -0.000817   0.001491   0.014710   0.151584
    5  C  1  Z    0.000000   0.000000   0.000000   0.000000   0.000000
    6  C  1  S   -0.088226   0.015502   0.023612   0.342308  -0.098200
    7  C  1  X   -0.011745  -0.003137   0.013449   0.016609  -0.019440
    8  C  1  Y   -0.006006   0.016908  -0.008810   0.003664   0.021447
    9  C  1  Z    0.000000   0.000000   0.000000   0.000000   0.000000
   10  C  2  S   -0.035439  -0.036691   0.984170  -0.117600   0.144136
   11  C  2  S   -0.008285  -0.005166   0.106046   0.128394  -0.151856
   12  C  2  X    0.002066   0.000588  -0.000025  -0.069331   0.041205
   13  C  2  Y   -0.001608  -0.001036  -0.000026   0.053354  -0.000749
   14  C  2  Z    0.000000   0.000000   0.000000   0.000000   0.000000
   15  C  2  S    0.031783   0.006758  -0.076804   0.235394  -0.370186
   16  C  2  X   -0.010425  -0.004538   0.007412  -0.005530   0.016678
   17  C  2  Y    0.012954   0.002114  -0.004097  -0.000614   0.005152
   18  C  2  Z    0.000000   0.000000   0.000000   0.000000   0.000000
   19  C  3  S   -0.037195   0.984966   0.035223  -0.126650  -0.158481
   20  C  3  S   -0.006465   0.112160   0.003057   0.123518   0.151360
   21  C  3  X    0.000411  -0.000009  -0.000513   0.007446  -0.016506
   22  C  3  Y    0.000804   0.000002   0.000859  -0.058976   0.020893
   23  C  3  Z    0.000000   0.000000   0.000000   0.000000   0.000000
   24  C  3  S    0.023690  -0.092878  -0.001378   0.320804   0.488217
   25  C  3  X    0.000549   0.000507   0.000261   0.002434  -0.010661
   26  C  3  Y   -0.013866   0.006259  -0.002291  -0.008145  -0.002109
   27  C  3  Z    0.000000   0.000000   0.000000   0.000000   0.000000
   28  H  4  S   -0.002059  -0.000963  -0.001175   0.071769  -0.019901
   29  H  4  S    0.010969   0.001426   0.001905   0.006833  -0.005311
   30  H  5  S   -0.001623  -0.000234  -0.001971   0.054457  -0.077219
   31  H  5  S   -0.002146   0.000975   0.013591   0.005597  -0.018561
   32  H  6  S   -0.000483  -0.000210  -0.002021   0.048727  -0.091395
   33  H  6  S    0.002251   0.001341   0.014064  -0.004059  -0.025004
   34  H  7  S   -0.001480  -0.000179  -0.000287   0.059918   0.092784
   35  H  7  S    0.001887   0.015949   0.000861  -0.004488   0.016132
   36  H  8  S   -0.001480  -0.000179  -0.000287   0.059918   0.092784
   37  H  8  S    0.001887   0.015949   0.000861  -0.004488   0.016132
   38  H  9  S   -0.000862   0.000090  -0.000165   0.055751   0.100404
   39  H  9  S   -0.000506   0.015756   0.002116  -0.002267   0.021680

                      6          7          8          9         10
                   -0.5465    -0.4627    -0.4176    -0.4117    -0.3613
                     A'         A'         A'         A''        A'  
    1  C  1  S   -0.129297  -0.033360  -0.003450   0.000000  -0.005400
    2  C  1  S    0.133213   0.036988   0.000544   0.000000  -0.000219
    3  C  1  X   -0.135504   0.216425  -0.163523   0.000000  -0.179323
    4  C  1  Y   -0.041363   0.119914   0.221011   0.000000   0.149666
    5  C  1  Z    0.000000   0.000000   0.000000   0.132880   0.000000
    6  C  1  S    0.434420   0.113545   0.020346   0.000000   0.050067
    7  C  1  X   -0.067870   0.147589  -0.105547   0.000000  -0.094536
    8  C  1  Y   -0.011207   0.086279   0.137972   0.000000   0.070905
    9  C  1  Z    0.000000   0.000000   0.000000   0.100258   0.000000
   10  C  2  S    0.097087   0.021442  -0.003225   0.000000   0.026919
   11  C  2  S   -0.098175  -0.016953  -0.003266   0.000000  -0.032145
   12  C  2  X   -0.159356  -0.026237   0.299649   0.000000   0.127015
   13  C  2  Y    0.038030   0.281594   0.044306   0.000000  -0.211472
   14  C  2  Z    0.000000   0.000000   0.000000   0.059453   0.000000
   15  C  2  S   -0.327375  -0.108936   0.056007   0.000000  -0.097748
   16  C  2  X   -0.075215   0.005003   0.181878   0.000000   0.078499
   17  C  2  Y    0.000297   0.163151   0.043986   0.000000  -0.146938
   18  C  2  Z    0.000000   0.000000   0.000000   0.050677   0.000000
   19  C  3  S    0.055914   0.016369   0.008609   0.000000  -0.009968
   20  C  3  S   -0.051795  -0.011913  -0.004903   0.000000   0.009896
   21  C  3  X   -0.049670   0.164761  -0.167784   0.000000   0.288934
   22  C  3  Y   -0.128241  -0.126792  -0.199194   0.000000  -0.142934
   23  C  3  Z    0.000000   0.000000   0.000000   0.371513   0.000000
   24  C  3  S   -0.217646  -0.081993  -0.052022   0.000000   0.045154
   25  C  3  X   -0.034087   0.117637  -0.117668   0.000000   0.229920
   26  C  3  Y   -0.054919  -0.067334  -0.137466   0.000000  -0.112019
   27  C  3  Z    0.000000   0.000000   0.000000   0.285663   0.000000
   28  H  4  S    0.171934  -0.115915   0.029668   0.000000   0.068531
   29  H  4  S    0.094509  -0.094677   0.029126   0.000000   0.068372
   30  H  5  S   -0.139159   0.045645   0.188120   0.000000  -0.016192
   31  H  5  S   -0.078246   0.034444   0.161507   0.000000   0.004143
   32  H  6  S   -0.097811  -0.186970  -0.025598   0.000000   0.131327
   33  H  6  S   -0.055634  -0.147306  -0.017243   0.000000   0.142048
   34  H  7  S   -0.075719   0.005281  -0.105129   0.206036   0.069787
   35  H  7  S   -0.044505   0.003148  -0.088713   0.181663   0.064836
   36  H  8  S   -0.075719   0.005281  -0.105129  -0.206036   0.069787
   37  H  8  S   -0.044505   0.003148  -0.088713  -0.181663   0.064836
   38  H  9  S   -0.035637  -0.133627   0.057693   0.000000  -0.234474
   39  H  9  S   -0.013354  -0.105686   0.055832   0.000000  -0.242987

                     11         12         13         14         15
                   -0.3417    -0.2437     0.0258     0.1327     0.1581
                     A'         A''        A''        A'         A'  
    1  C  1  S    0.006811   0.000000   0.000000   0.066120   0.032500
    2  C  1  S   -0.011465   0.000000   0.000000  -0.034964  -0.001161
    3  C  1  X   -0.171759   0.000000   0.000000   0.166257   0.080441
    4  C  1  Y   -0.219968   0.000000   0.000000   0.074845   0.040235
    5  C  1  Z    0.000000   0.320320  -0.364915   0.000000   0.000000
    6  C  1  S   -0.008645   0.000000   0.000000  -0.949858  -0.343846
    7  C  1  X   -0.148922   0.000000   0.000000   0.360561   0.281076
    8  C  1  Y   -0.157432   0.000000   0.000000   0.272022  -0.009548
    9  C  1  Z    0.000000   0.341960  -0.621140   0.000000   0.000000
   10  C  2  S    0.008543   0.000000   0.000000   0.055535  -0.029068
   11  C  2  S   -0.012247   0.000000   0.000000  -0.042201   0.030532
   12  C  2  X    0.150545   0.000000   0.000000  -0.026920   0.094104
   13  C  2  Y    0.162985   0.000000   0.000000   0.103881   0.073595
   14  C  2  Z    0.000000   0.347348   0.340750   0.000000   0.000000
   15  C  2  S   -0.017372   0.000000   0.000000  -0.590759   0.266406
   16  C  2  X    0.100738   0.000000   0.000000  -0.241129   0.351185
   17  C  2  Y    0.147149   0.000000   0.000000   0.405032   0.126666
   18  C  2  Z    0.000000   0.367935   0.638318   0.000000   0.000000
   19  C  3  S    0.023188   0.000000   0.000000   0.065564  -0.134222
   20  C  3  S   -0.024219   0.000000   0.000000  -0.031999   0.060248
   21  C  3  X    0.099643   0.000000   0.000000   0.140856   0.124530
   22  C  3  Y    0.229942   0.000000   0.000000  -0.075722   0.140006
   23  C  3  Z    0.000000  -0.112317  -0.022947   0.000000   0.000000
   24  C  3  S   -0.096243   0.000000   0.000000  -0.858411   1.798662
   25  C  3  X    0.099849   0.000000   0.000000   0.504987   0.374540
   26  C  3  Y    0.167178   0.000000   0.000000  -0.301489   0.466567
   27  C  3  Z    0.000000  -0.105726  -0.177919   0.000000   0.000000
   28  H  4  S    0.200452   0.000000   0.000000   0.058453   0.082028
   29  H  4  S    0.206067   0.000000   0.000000   1.044585   0.619252
   30  H  5  S    0.165760   0.000000   0.000000  -0.027121  -0.009779
   31  H  5  S    0.187392   0.000000   0.000000   0.170693  -0.630657
   32  H  6  S   -0.146147   0.000000   0.000000   0.070126  -0.003994
   33  H  6  S   -0.138537   0.000000   0.000000   0.841879   0.051807
   34  H  7  S    0.080357  -0.094309   0.080613  -0.026721  -0.041639
   35  H  7  S    0.103146  -0.109844   0.334384   0.104609  -1.144054
   36  H  8  S    0.080357   0.094309  -0.080613  -0.026721  -0.041639
   37  H  8  S    0.103146   0.109844  -0.334384   0.104609  -1.144054
   38  H  9  S   -0.038807   0.000000   0.000000   0.086041   0.016072
   39  H  9  S   -0.016394   0.000000   0.000000   1.111645  -0.331782

                     16         17         18         19         20
                    0.1758     0.2096     0.2145     0.2296     0.3281
                     A'         A'         A''        A'         A'  
    1  C  1  S    0.007985  -0.043329   0.000000  -0.138513  -0.077954
    2  C  1  S   -0.023709   0.017226   0.000000   0.074230   0.019383
    3  C  1  X    0.006667   0.025646   0.000000  -0.138640   0.172246
    4  C  1  Y    0.107520   0.091496   0.000000   0.015563   0.317755
    5  C  1  Z    0.000000   0.000000   0.123634   0.000000   0.000000
    6  C  1  S    0.053227   0.564218   0.000000   1.928697   1.373542
    7  C  1  X   -0.011185   0.107131   0.000000  -0.600095   0.935227
    8  C  1  Y    0.484939   0.150588   0.000000   0.082064   1.761722
    9  C  1  Z    0.000000   0.000000   0.440546   0.000000   0.000000
   10  C  2  S   -0.125756   0.052063   0.000000   0.045479   0.028682
   11  C  2  S    0.065400  -0.021631   0.000000  -0.031645   0.000862
   12  C  2  X    0.198847   0.067005   0.000000   0.084843  -0.117636
   13  C  2  Y    0.016440   0.286592   0.000000   0.024820  -0.168315
   14  C  2  Z    0.000000   0.000000  -0.108409   0.000000   0.000000
   15  C  2  S    1.646119  -0.792985   0.000000  -0.378251  -0.470051
   16  C  2  X    0.598949   0.350062   0.000000   0.400449  -0.397241
   17  C  2  Y    0.054325   0.889772   0.000000   0.202439  -1.308692
   18  C  2  Z    0.000000   0.000000  -0.212362   0.000000   0.000000
   19  C  3  S    0.084246   0.022041   0.000000   0.065707   0.071112
   20  C  3  S   -0.026753  -0.020010   0.000000  -0.030674   0.009202
   21  C  3  X    0.029065  -0.218433   0.000000   0.219709  -0.027462
   22  C  3  Y   -0.002244   0.144945   0.000000   0.133755   0.146999
   23  C  3  Z    0.000000   0.000000  -0.379543   0.000000   0.000000
   24  C  3  S   -1.192710  -0.121211   0.000000  -0.787138  -1.408744
   25  C  3  X   -0.061193  -0.795738   0.000000   0.895217  -0.327997
   26  C  3  Y    0.112518   0.481925   0.000000   0.672143   1.569581
   27  C  3  Z    0.000000   0.000000  -1.382754   0.000000   0.000000
   28  H  4  S    0.033850   0.010109   0.000000  -0.012806  -0.024472
   29  H  4  S    0.346407   0.017368   0.000000  -1.309489   1.124225
   30  H  5  S   -0.106786  -0.011540   0.000000  -0.014531  -0.043415
   31  H  5  S   -1.515648  -0.531487   0.000000  -0.252281   1.100059
   32  H  6  S   -0.015484   0.057632   0.000000   0.038666   0.044308
   33  H  6  S   -0.614646   1.501123   0.000000   0.471118  -0.962874
   34  H  7  S    0.032206   0.008207   0.061657  -0.042978  -0.057987
   35  H  7  S    0.432774   0.312913   1.385750  -0.428179  -0.026263
   36  H  8  S    0.032206   0.008207  -0.061657  -0.042978  -0.057987
   37  H  8  S    0.432774   0.312913  -1.385750  -0.428179  -0.026263
   38  H  9  S   -0.027739  -0.061333   0.000000   0.040474  -0.073809
   39  H  9  S    0.336302  -1.046586   0.000000   1.092384  -0.314879

                     21         22         23         24         25
                    0.3847     0.6617     0.7123     0.7282     0.7533
                     A'         A'         A'         A''        A'  
    1  C  1  S    0.082185  -0.023451   0.007662   0.000000   0.065671
    2  C  1  S   -0.000634  -0.016848   0.055279   0.000000   0.020076
    3  C  1  X   -0.243227  -0.244486   0.190232   0.000000  -0.066007
    4  C  1  Y    0.160909   0.152671  -0.466203   0.000000  -0.253429
    5  C  1  Z    0.000000   0.000000   0.000000  -0.688604   0.000000
    6  C  1  S   -2.262692  -0.275948  -0.166538   0.000000   0.430622
    7  C  1  X   -2.217533   0.375997  -0.433782   0.000000  -0.158065
    8  C  1  Y    1.488501  -0.497913   0.562676   0.000000   0.680628
    9  C  1  Z    0.000000   0.000000   0.000000   0.360233   0.000000
   10  C  2  S   -0.102867   0.003806   0.010972   0.000000  -0.026382
   11  C  2  S    0.002390  -0.115010   0.027771   0.000000   0.114357
   12  C  2  X   -0.155083   0.349248  -0.465237   0.000000  -0.359194
   13  C  2  Y    0.040999  -0.436736  -0.115807   0.000000   0.150338
   14  C  2  Z    0.000000   0.000000   0.000000  -0.581880   0.000000
   15  C  2  S    2.607750  -0.196434   0.430610   0.000000   0.283469
   16  C  2  X   -2.182742  -0.204872   0.727152   0.000000   0.292036
   17  C  2  Y    1.248400   0.619960   0.252560   0.000000  -0.046232
   18  C  2  Z    0.000000   0.000000   0.000000   0.480786   0.000000
   19  C  3  S    0.005406   0.008549  -0.000117   0.000000  -0.036252
   20  C  3  S   -0.007411  -0.064782  -0.008555   0.000000   0.120815
   21  C  3  X   -0.018610  -0.489432  -0.101484   0.000000  -0.233442
   22  C  3  Y    0.106626   0.152636   0.534573   0.000000  -0.815682
   23  C  3  Z    0.000000   0.000000   0.000000  -0.356828   0.000000
   24  C  3  S   -0.280352   0.317430  -0.307288   0.000000  -0.199172
   25  C  3  X    0.587036   0.625555   0.221599   0.000000   0.467656
   26  C  3  Y    0.494330  -0.264111  -0.654954   0.000000   1.219455
   27  C  3  Z    0.000000   0.000000   0.000000   0.713678   0.000000
   28  H  4  S   -0.023146   0.213239   0.222461   0.000000   0.445236
   29  H  4  S   -0.442162  -0.075411  -0.148008   0.000000  -0.186244
   30  H  5  S    0.041770  -0.164784  -0.369452   0.000000  -0.156826
   31  H  5  S    0.403382  -0.032815  -0.138722   0.000000  -0.056996
   32  H  6  S    0.104863   0.192057   0.255872   0.000000   0.052832
   33  H  6  S    0.265072   0.077835  -0.091686   0.000000  -0.029902
   34  H  7  S   -0.021244  -0.225765   0.080331  -0.322524  -0.190543
   35  H  7  S   -0.287565   0.066670   0.012742  -0.087276  -0.179777
   36  H  8  S   -0.021244  -0.225765   0.080331   0.322524  -0.190543
   37  H  8  S   -0.287565   0.066670   0.012742   0.087276  -0.179777
   38  H  9  S   -0.052268   0.431355   0.100444   0.000000   0.038343
   39  H  9  S    0.113116  -0.093727   0.081809   0.000000  -0.033119

                     26         27         28         29         30
                    0.7936     0.8453     0.8627     0.9353     0.9620
                     A''        A'         A''        A'         A'  
    1  C  1  S    0.000000  -0.038393   0.000000  -0.011303   0.007999
    2  C  1  S    0.000000   0.141730   0.000000  -0.271304  -0.053303
    3  C  1  X    0.000000   0.429873   0.000000  -0.060537  -0.691625
    4  C  1  Y    0.000000  -0.444418   0.000000  -0.624238  -0.101892
    5  C  1  Z   -0.210887   0.000000   0.801787   0.000000   0.000000
    6  C  1  S    0.000000  -0.112523   0.000000   0.172934   0.176038
    7  C  1  X    0.000000  -0.340698   0.000000  -0.069312   2.228939
    8  C  1  Y    0.000000   0.626181   0.000000   0.967850   0.192588
    9  C  1  Z    0.168876   0.000000  -1.386527   0.000000   0.000000
   10  C  2  S    0.000000   0.078801   0.000000  -0.004777  -0.006642
   11  C  2  S    0.000000   0.143322   0.000000  -0.166560   0.038508
   12  C  2  X    0.000000   0.362388   0.000000   0.351769  -0.034203
   13  C  2  Y    0.000000  -0.234872   0.000000  -0.153975  -0.007526
   14  C  2  Z    0.851306   0.000000  -0.307539   0.000000   0.000000
   15  C  2  S    0.000000  -0.165653   0.000000   0.322141  -1.208061
   16  C  2  X    0.000000  -0.653366   0.000000  -0.433874   0.164807
   17  C  2  Y    0.000000   0.380847   0.000000   0.089224  -0.274049
   18  C  2  Z   -0.867848   0.000000   0.667044   0.000000   0.000000
   19  C  3  S    0.000000  -0.011501   0.000000  -0.070100  -0.009392
   20  C  3  S    0.000000   0.021258   0.000000   0.064884   0.035955
   21  C  3  X    0.000000   0.042241   0.000000   0.007234   0.814301
   22  C  3  Y    0.000000  -0.167567   0.000000  -0.007784   0.021058
   23  C  3  Z   -0.511161   0.000000  -0.557685   0.000000   0.000000
   24  C  3  S    0.000000  -0.226805   0.000000  -0.286408  -0.109370
   25  C  3  X    0.000000  -0.126202   0.000000  -0.025624  -1.991038
   26  C  3  Y    0.000000   0.372918   0.000000   0.528506   0.024856
   27  C  3  Z    0.899240   0.000000   1.465121   0.000000   0.000000
   28  H  4  S    0.000000   0.054930   0.000000  -0.561941   0.260731
   29  H  4  S    0.000000  -0.013469   0.000000   0.570753   0.912326
   30  H  5  S    0.000000   0.626620   0.000000  -0.395221  -0.077866
   31  H  5  S    0.000000  -0.135907   0.000000   0.360147   0.268658
   32  H  6  S    0.000000   0.711304   0.000000  -0.274999   0.338020
   33  H  6  S    0.000000  -0.185578   0.000000   0.230230  -0.227312
   34  H  7  S   -0.271066   0.002729  -0.251183  -0.414491  -0.101971
   35  H  7  S   -0.111263  -0.027398  -0.357905   0.077137   0.537330
   36  H  8  S    0.271066   0.002729   0.251183  -0.414491  -0.101971
   37  H  8  S    0.111263  -0.027398   0.357905   0.077137   0.537330
   38  H  9  S    0.000000  -0.099026   0.000000  -0.435839   0.093234
   39  H  9  S    0.000000  -0.096263   0.000000   0.065793  -1.068940

                     31         32         33         34         35
                    1.0361     1.0533     1.0869     1.0921     1.1321
                     A'         A''        A'         A'         A'  
    1  C  1  S    0.020259   0.000000  -0.025953  -0.029269  -0.022059
    2  C  1  S   -0.116455   0.000000   0.130202   0.129845   0.077000
    3  C  1  X    0.244588   0.000000  -0.623433  -0.223742   0.180483
    4  C  1  Y    0.178027   0.000000  -0.087054  -0.268185  -0.263504
    5  C  1  Z    0.000000   0.125266   0.000000   0.000000   0.000000
    6  C  1  S   -0.013121   0.000000   0.219132   0.075824  -0.294059
    7  C  1  X   -0.636116   0.000000   1.505816  -0.146701  -0.493427
    8  C  1  Y   -0.908738   0.000000  -0.220501   0.846521   1.005372
    9  C  1  Z    0.000000  -0.097087   0.000000   0.000000   0.000000
   10  C  2  S   -0.003762   0.000000   0.016006   0.011585  -0.026795
   11  C  2  S   -0.000962   0.000000  -0.063751  -0.032767   0.098792
   12  C  2  X   -0.441186   0.000000  -0.361627  -0.303384   0.356779
   13  C  2  Y   -0.799233   0.000000  -0.349138   0.164694  -0.468931
   14  C  2  Z    0.000000   0.056180   0.000000   0.000000   0.000000
   15  C  2  S    0.043223   0.000000  -0.790115   0.589487   0.140391
   16  C  2  X    0.880262   0.000000   0.955849   0.208632  -0.843938
   17  C  2  Y    1.640214   0.000000   0.361204  -0.403747   0.883558
   18  C  2  Z    0.000000  -0.042237   0.000000   0.000000   0.000000
   19  C  3  S   -0.025371   0.000000   0.013536   0.038438   0.073231
   20  C  3  S   -0.018418   0.000000  -0.066569  -0.107867  -0.298082
   21  C  3  X    0.285463   0.000000  -0.403498   0.053053   0.211864
   22  C  3  Y    0.024592   0.000000  -0.125310  -0.097214  -0.396976
   23  C  3  Z    0.000000   0.754916   0.000000   0.000000   0.000000
   24  C  3  S    0.526298   0.000000   0.207688  -0.322484   0.090168
   25  C  3  X   -0.392372   0.000000   0.035948   0.416254  -0.463373
   26  C  3  Y   -0.217119   0.000000   0.138630   0.429546   0.899451
   27  C  3  Z    0.000000  -0.911048   0.000000   0.000000   0.000000
   28  H  4  S    0.135174   0.000000  -0.361473  -0.786794   0.013716
   29  H  4  S   -0.621925   0.000000   1.060988   0.902414   0.062971
   30  H  5  S    0.473906   0.000000   0.294950   0.386144  -0.450328
   31  H  5  S   -1.306442   0.000000  -0.771772  -0.481815   0.625907
   32  H  6  S   -0.529227   0.000000   0.061202  -0.015946  -0.392785
   33  H  6  S    1.402203   0.000000   0.289913  -0.272324   0.882961
   34  H  7  S   -0.301916  -0.801035   0.416617  -0.105717   0.527727
   35  H  7  S    0.322364   1.224348  -0.488458   0.025385  -0.493678
   36  H  8  S   -0.301916   0.801035   0.416617  -0.105717   0.527727
   37  H  8  S    0.322364  -1.224348  -0.488458   0.025385  -0.493678
   38  H  9  S    0.006796   0.000000  -0.595696   0.912930   0.410998
   39  H  9  S   -0.349048   0.000000   0.646963  -0.687174  -0.784010

                     36         37         38         39
                    1.3692     1.4716     1.7434     1.9263
                     A'         A'         A'         A'  
    1  C  1  S   -0.015432   0.010168   0.001440   0.045902
    2  C  1  S    0.829834  -0.661044   1.201416   1.104939
    3  C  1  X   -0.239964  -0.088147   0.122596   0.059220
    4  C  1  Y   -0.367003  -0.378643   0.074840   0.054212
    5  C  1  Z    0.000000   0.000000   0.000000   0.000000
    6  C  1  S   -1.206718   0.669842  -3.056277  -3.566036
    7  C  1  X    1.180760   0.608341  -1.294709  -0.551899
    8  C  1  Y    1.961530   2.259352   0.368866  -1.455576
    9  C  1  Z    0.000000   0.000000   0.000000   0.000000
   10  C  2  S   -0.024261   0.021280  -0.007621  -0.008795
   11  C  2  S    0.714818  -1.146817  -1.269850  -0.306929
   12  C  2  X    0.234662   0.100014   0.018452  -0.060099
   13  C  2  Y    0.117128   0.203786  -0.106694   0.077306
   14  C  2  Z    0.000000   0.000000   0.000000   0.000000
   15  C  2  S   -0.838541   1.966073   3.520424   1.310614
   16  C  2  X   -1.326723  -1.058308  -0.717428   0.031929
   17  C  2  Y   -1.446343  -1.556479   1.003625   0.560853
   18  C  2  Z    0.000000   0.000000   0.000000   0.000000
   19  C  3  S    0.002018   0.030626  -0.003170  -0.072447
   20  C  3  S    0.306539  -0.320933   0.948857  -1.811249
   21  C  3  X   -0.133317  -0.085480   0.116817   0.059526
   22  C  3  Y    0.269139   0.090674  -0.112444  -0.028739
   23  C  3  Z    0.000000   0.000000   0.000000   0.000000
   24  C  3  S   -1.495903  -0.813645  -1.280464   4.827414
   25  C  3  X    0.037397   0.002627  -0.054026  -0.037202
   26  C  3  Y    0.001619   0.781400  -0.198386  -0.972489
   27  C  3  Z    0.000000   0.000000   0.000000   0.000000
   28  H  4  S    0.408361   0.529653  -0.017103   0.071791
   29  H  4  S    1.060631   0.250365   0.108850  -0.007887
   30  H  5  S    0.392352   0.495863  -0.201899  -0.131647
   31  H  5  S    0.899380   0.045588  -0.455623  -0.334953
   32  H  6  S   -0.688313  -0.387502  -0.019160   0.065457
   33  H  6  S    0.040792  -0.983624  -0.131959  -0.084805
   34  H  7  S   -0.035042   0.138905   0.013877  -0.325584
   35  H  7  S    0.244541  -0.272743   0.440710  -0.481072
   36  H  8  S   -0.035042   0.138905   0.013877  -0.325584
   37  H  8  S    0.244541  -0.272743   0.440710  -0.481072
   38  H  9  S   -0.023450   0.071856   0.076796  -0.306201
   39  H  9  S    0.317339  -0.139579   0.175926  -0.616007
 ...... END OF RHF CALCULATION ......
 STEP CPU TIME =     4.24 TOTAL CPU TIME =          4.3 (      0.1 MIN)
 TOTAL WALL CLOCK TIME=          4.4 SECONDS, CPU UTILIZATION IS    97.27%

     ---------------------------------------------------------------------
     PROPERTIES FOR THE B3LYP    DFT FUNCTIONAL (RHF  TYPE) DENSITY MATRIX
     ---------------------------------------------------------------------

          -----------------
          ENERGY COMPONENTS
          -----------------

         WAVEFUNCTION NORMALIZATION =       1.0000000000

                ONE ELECTRON ENERGY =    -296.1895301207
                TWO ELECTRON ENERGY =     108.1995354547
           NUCLEAR REPULSION ENERGY =      70.8143096751
                                      ------------------
                       TOTAL ENERGY =    -117.1756849908

 ELECTRON-ELECTRON POTENTIAL ENERGY =     108.1995354547
  NUCLEUS-ELECTRON POTENTIAL ENERGY =    -412.3635466636
   NUCLEUS-NUCLEUS POTENTIAL ENERGY =      70.8143096751
                                      ------------------
             TOTAL POTENTIAL ENERGY =    -233.3497015337
               TOTAL KINETIC ENERGY =     116.1740165429
                 VIRIAL RATIO (V/T) =       2.0086221384

          ---------------------------------------
          MULLIKEN AND LOWDIN POPULATION ANALYSES
          ---------------------------------------

     ATOMIC MULLIKEN POPULATION IN EACH MOLECULAR ORBITAL

                      1          2          3          4          5

                  2.000000   2.000000   2.000000   2.000000   2.000000

    1             1.979229   0.008510   0.010610   0.826879   0.217866
    2             0.010488   0.002949   1.981255   0.457933   0.619898
    3             0.008133   1.978940   0.002616   0.580811   0.814473
    4             0.002082   0.000035   0.000064   0.038765   0.003334
    5            -0.000037  -0.000002   0.002653   0.022726   0.048863
    6             0.000043  -0.000008   0.002767   0.012464   0.072637
    7             0.000035   0.003207   0.000009   0.020456   0.068635
    8             0.000035   0.003207   0.000009   0.020456   0.068635
    9            -0.000007   0.003161   0.000018   0.019509   0.085658

                      6          7          8          9         10

                  2.000000   2.000000   2.000000   2.000000   2.000000

    1             0.617412   0.452822   0.419914   0.166866   0.235150
    2             0.489655   0.572073   0.568322   0.036699   0.319622
    3             0.242206   0.338477   0.467573   1.041835   0.692427
    4             0.262447   0.129467   0.008709   0.000000   0.038418
    5             0.179987   0.017870   0.307698   0.000000   0.001209
    6             0.086398   0.319565   0.004455   0.000000   0.154987
    7             0.055942   0.000196   0.096577   0.377300   0.038348
    8             0.055942   0.000196   0.096577   0.377300   0.038348
    9             0.010010   0.169334   0.030176   0.000000   0.481490

                     11         12

                  2.000000   2.000000

    1             0.430592   0.815809
    2             0.312636   0.999195
    3             0.374819   0.061672
    4             0.330869   0.000000
    5             0.243748   0.000000
    6             0.165658   0.000000
    7             0.066683   0.061662
    8             0.066683   0.061662
    9             0.008311   0.000000

               ----- POPULATIONS IN EACH AO -----
                             MULLIKEN      LOWDIN
              1  C  1  S      1.98581     1.97504
              2  C  1  S      0.40212     0.42277
              3  C  1  X      0.62175     0.58206
              4  C  1  Y      0.59493     0.56083
              5  C  1  Z      0.43415     0.41660
              6  C  1  S      0.91548     0.55241
              7  C  1  X      0.38564     0.52460
              8  C  1  Y      0.29326     0.49691
              9  C  1  Z      0.54852     0.56162
             10  C  2  S      1.98512     1.97529
             11  C  2  S      0.40103     0.42780
             12  C  2  X      0.61073     0.57154
             13  C  2  Y      0.59383     0.54945
             14  C  2  Z      0.44846     0.43609
             15  C  2  S      0.96107     0.58060
             16  C  2  X      0.35561     0.52131
             17  C  2  Y      0.42745     0.54008
             18  C  2  Z      0.58743     0.60506
             19  C  3  S      1.98642     1.97420
             20  C  3  S      0.36988     0.41943
             21  C  3  X      0.57114     0.53069
             22  C  3  Y      0.56375     0.53445
             23  C  3  Z      0.57010     0.52869
             24  C  3  S      1.11446     0.57060
             25  C  3  X      0.52394     0.58772
             26  C  3  Y      0.37090     0.53363
             27  C  3  Z      0.53340     0.59141
             28  H  4  S      0.47815     0.47395
             29  H  4  S      0.33604     0.43667
             30  H  5  S      0.47547     0.46624
             31  H  5  S      0.34925     0.44610
             32  H  6  S      0.47904     0.46853
             33  H  6  S      0.33993     0.44040
             34  H  7  S      0.46877     0.46725
             35  H  7  S      0.32028     0.42835
             36  H  8  S      0.46877     0.46725
             37  H  8  S      0.32028     0.42835
             38  H  9  S      0.47086     0.47040
             39  H  9  S      0.33680     0.43563

          ----- MULLIKEN ATOMIC OVERLAP POPULATIONS -----
          (OFF-DIAGONAL ELEMENTS NEED TO BE MULTIPLIED BY 2)

             1           2           3           4           5

    1    5.1555677
    2    0.5634164   5.1792571
    3    0.2959500  -0.0877810   5.3416310
    4    0.3904175  -0.0441027  -0.0454673   0.5136477
    5   -0.0536854   0.3853841  -0.0044732   0.0033536   0.5204049
    6   -0.0421489   0.3792372   0.0036176  -0.0041889  -0.0292197
    7   -0.0452107  -0.0044462   0.3682819   0.0024975   0.0014547
    8   -0.0452107  -0.0044462   0.3682819   0.0024975   0.0014547
    9   -0.0374353   0.0042063   0.3639402  -0.0044643   0.0000404

             6           7           8           9

    6    0.5118272
    7   -0.0000308   0.5165651
    8   -0.0000308  -0.0240714   0.5165651
    9   -0.0000971  -0.0259885  -0.0259885   0.5334465

          TOTAL MULLIKEN AND LOWDIN ATOMIC POPULATIONS
       ATOM         MULL.POP.    CHARGE          LOW.POP.     CHARGE
    1 C             6.181661   -0.181661         6.092840   -0.092840
    2 C             6.370725   -0.370725         6.207223   -0.207223
    3 C             6.603981   -0.603981         6.270831   -0.270831
    4 H             0.814191    0.185809         0.910620    0.089380
    5 H             0.824714    0.175286         0.912335    0.087665
    6 H             0.818966    0.181034         0.908922    0.091078
    7 H             0.789052    0.210948         0.895599    0.104401
    8 H             0.789052    0.210948         0.895599    0.104401
    9 H             0.807660    0.192340         0.906030    0.093970

          -------------------------------
          BOND ORDER AND VALENCE ANALYSIS     BOND ORDER THRESHOLD=0.050
          -------------------------------

                   BOND                       BOND                       BOND
  ATOM PAIR DIST  ORDER      ATOM PAIR DIST  ORDER      ATOM PAIR DIST  ORDER
    1   2  1.346  1.914        1   3  1.490  0.962        1   4  1.088  0.930
    2   5  1.087  0.936        2   6  1.080  0.932        3   7  1.092  0.912
    3   8  1.092  0.912        3   9  1.097  0.927

                       TOTAL       BONDED        FREE
      ATOM            VALENCE     VALENCE     VALENCE
    1 C                 3.756       3.756       0.000
    2 C                 3.781       3.781       0.000
    3 C                 3.691       3.691      -0.000
    4 H                 0.928       0.928      -0.000
    5 H                 0.934       0.934       0.000
    6 H                 0.932       0.932       0.000
    7 H                 0.911       0.911       0.000
    8 H                 0.911       0.911       0.000
    9 H                 0.919       0.919       0.000

          ---------------------
          ELECTROSTATIC MOMENTS
          ---------------------

 POINT   1           X           Y           Z (BOHR)    CHARGE
                 0.002675    0.000464    0.000000        0.00 (A.U.)
         DX          DY          DZ         /D/  (DEBYE)
    -0.149236    0.308967    0.000000    0.343121
 ...... END OF PROPERTY EVALUATION ......
 STEP CPU TIME =     0.01 TOTAL CPU TIME =          4.3 (      0.1 MIN)
 TOTAL WALL CLOCK TIME=          4.4 SECONDS, CPU UTILIZATION IS    97.27%

 BEGINNING ONE ELECTRON GRADIENT...
 ..... END OF 1-ELECTRON GRADIENT ......
 STEP CPU TIME =     0.00 TOTAL CPU TIME =          4.3 (      0.1 MIN)
 TOTAL WALL CLOCK TIME=          4.4 SECONDS, CPU UTILIZATION IS    97.05%

          ----------------------
          GRADIENT OF THE ENERGY
          ----------------------
 MEMORY FOR GRID POINT CONTRIBUTIONS TO THE DFT GRADIENT=    584845 WORDS.
 STEP CPU TIME =     1.22 TOTAL CPU TIME =          5.5 (      0.1 MIN)
 TOTAL WALL CLOCK TIME=          5.6 SECONDS, CPU UTILIZATION IS    97.69%
 THE COARSE/FINE SCHWARZ SCREENINGS SKIPPED         2073/        1224 BLOCKS.
 THE NUMBER OF GRADIENT INTEGRAL BLOCKS COMPUTED WAS     16072
 ...... END OF 2-ELECTRON GRADIENT ......
 STEP CPU TIME =     0.01 TOTAL CPU TIME =          5.5 (      0.1 MIN)
 TOTAL WALL CLOCK TIME=          5.6 SECONDS, CPU UTILIZATION IS    97.52%

          NSERCH=  0     ENERGY=    -117.1756850

                                 -----------------------
                                 GRADIENT (HARTREE/BOHR)
                                 -----------------------
        ATOM     ZNUC       DE/DX         DE/DY         DE/DZ
 --------------------------------------------------------------
    1  C            6.0    -0.0194940     0.0227244     0.0000000
    2  C            6.0     0.0163061    -0.0085022     0.0000000
    3  C            6.0     0.0122607    -0.0103854     0.0000000
    4  H            1.0    -0.0001703    -0.0001191     0.0000000
    5  H            1.0    -0.0008785     0.0017613     0.0000000
    6  H            1.0    -0.0019281     0.0034870     0.0000000
    7  H            1.0    -0.0019660    -0.0028879    -0.0013057
    8  H            1.0    -0.0019660    -0.0028879     0.0013057
    9  H            1.0    -0.0021639    -0.0031902     0.0000000

          MAXIMUM GRADIENT = 0.0227244    RMS GRADIENT = 0.0075896

 NSERCH:   0  E=     -117.1756849908  GRAD. MAX=  0.0227244  R.M.S.=  0.0075896

          FORCE CONSTANT MATRIX NOT UPDATED --- TAKING FIRST STEP
          MIN SEARCH, CORRECT HESSIAN, TRYING PURE NR STEP
               NR STEP HAS LENGTH         =   0.154097
          RADIUS OF STEP TAKEN=   0.15410  CURRENT TRUST RADIUS=   0.30000

 BEGINNING GEOMETRY SEARCH POINT NSERCH=   1 ...

 COORDINATES OF SYMMETRY UNIQUE ATOMS (ANGS)
   ATOM   CHARGE       X              Y              Z
 ------------------------------------------------------------
 C           6.0  -0.3529249244  -0.3092112208   0.0000000000
 C           6.0   0.7725975528  -1.0136564356   0.0000000000
 C           6.0  -0.4357811763   1.1918408735   0.0000000000
 H           1.0  -1.3126415329  -0.8261728260   0.0000000000
 H           1.0   1.7435897668  -0.5201223361   0.0000000000
 H           1.0   0.8078641505  -2.0981714650   0.0000000000
 H           1.0   0.0914999166   1.6058142701  -0.8705788860
 H           1.0  -1.4557036699   1.5738648697   0.0000000000
 COORDINATES OF ALL ATOMS ARE (ANGS)
   ATOM   CHARGE       X              Y              Z
 ------------------------------------------------------------
 C           6.0  -0.3529249244  -0.3092112208   0.0000000000
 C           6.0   0.7725975528  -1.0136564356   0.0000000000
 C           6.0  -0.4357811763   1.1918408735   0.0000000000
 H           1.0  -1.3126415329  -0.8261728260   0.0000000000
 H           1.0   1.7435897668  -0.5201223361   0.0000000000
 H           1.0   0.8078641505  -2.0981714650   0.0000000000
 H           1.0   0.0914999166   1.6058142701   0.8705788860
 H           1.0   0.0914999166   1.6058142701  -0.8705788860
 H           1.0  -1.4557036699   1.5738648697   0.0000000000

          INTERNUCLEAR DISTANCES (ANGS.)
          ------------------------------

                1 C          2 C          3 C          4 H          5 H     

   1 C       0.0000000    1.3277966 *  1.5033371 *  1.0900942 *  2.1070969 *
   2 C       1.3277966 *  0.0000000    2.5148355 *  2.0936504 *  1.0892207 *
   3 C       1.5033371 *  2.5148355 *  0.0000000    2.2002871 *  2.7713671 *
   4 H       1.0900942 *  2.0936504 *  2.2002871 *  0.0000000    3.0715170  
   5 H       2.1070969 *  1.0892207 *  2.7713671 *  3.0715170    0.0000000  
   6 H       2.1325595 *  1.0850883 *  3.5172198    2.4727565 *  1.8346175 *
   7 H       2.1500567 *  2.8431371 *  1.0987752 *  2.9400820 *  2.8296493 *
   8 H       2.1500567 *  2.8431371 *  1.0987752 *  2.9400820 *  2.8296493 *
   9 H       2.1822228 *  3.4147610    1.0891209 *  2.4042978 *  3.8236450  

                6 H          7 H          8 H          9 H     

   1 C       2.1325595 *  2.1500567 *  2.1500567 *  2.1822228 *
   2 C       1.0850883 *  2.8431371 *  2.8431371 *  3.4147610  
   3 C       3.5172198    1.0987752 *  1.0987752 *  1.0891209 *
   4 H       2.4727565 *  2.9400820 *  2.9400820 *  2.4042978 *
   5 H       1.8346175 *  2.8296493 *  2.8296493 *  3.8236450  
   6 H       0.0000000    3.8717691    3.8717691    4.3136516  
   7 H       3.8717691    0.0000000    1.7411578 *  1.7756034 *
   8 H       3.8717691    1.7411578 *  0.0000000    1.7756034 *
   9 H       4.3136516    1.7756034 *  1.7756034 *  0.0000000  

  * ... LESS THAN  3.000

 ...... END OF ONE-ELECTRON INTEGRALS ......
 STEP CPU TIME =     0.00 TOTAL CPU TIME =          5.5 (      0.1 MIN)
 TOTAL WALL CLOCK TIME=          5.6 SECONDS, CPU UTILIZATION IS    97.52%
  ...... END OF TWO-ELECTRON INTEGRALS .....
 STEP CPU TIME =     0.00 TOTAL CPU TIME =          5.5 (      0.1 MIN)
 TOTAL WALL CLOCK TIME=          5.7 SECONDS, CPU UTILIZATION IS    97.35%

          --------------------------
             R-B3LYP SCF CALCULATION
          --------------------------
         DENSITY MATRIX CONVERGENCE THRESHOLD=  1.00E-04
     COARSE -> FINE DFT GRID SWITCH THRESHOLD=  1.50E-03 (SWITCH IN $DFT)
                   HF -> DFT SWITCH THRESHOLD=  5.00E-03 (SWOFF IN $DFT)

 DIRECT SCF CALCULATION, SCHWRZ=T   FDIFF=T,  DIRTHR=  0.00E+00 NITDIR=10

 DFT CODE IS SWITCHING FROM THE FINE GRID NRAD= 96,  NLEB=  590
                      TO THE COARSE GRID NRAD0= 24, NLEB0=  110

                                                                                   NONZERO     BLOCKS
 ITER EX DEM     TOTAL ENERGY        E CHANGE  DENSITY CHANGE    DIIS ERROR      INTEGRALS    SKIPPED
          * * *   INITIATING DIIS PROCEDURE   * * *
   1  0  0     -117.1739866610  -117.1739866610   0.010239634   0.014218886         165596       1698
   2  1  0     -117.1746559480    -0.0006692871   0.005680188   0.003236370         163552       2449
   3  2  0     -117.1746386459     0.0000173022   0.003455595   0.005629143         162269       2868
   4  3  0     -117.1746879725    -0.0000493267   0.000905171   0.001341692         161529       3065
 DFT CODE IS SWITCHING BACK TO THE FINE GRID
          * * *   INITIATING DIIS PROCEDURE   * * *
   5  4  0     -117.1761076778    -0.0014197053   0.001983083   0.000501190         165597       1697
   6  5  0     -117.1761091763    -0.0000014985   0.000461104   0.000309072         160553       3210
   7  6  0     -117.1761091302     0.0000000462   0.000277558   0.000440131         157268       3860
   8  7  0     -117.1761093678    -0.0000002376   0.000052240   0.000081303         155917       4228
   9  8  0     -117.1761093778    -0.0000000100   0.000008023   0.000007299         153147       4760

          -----------------
          DENSITY CONVERGED
          -----------------
     TIME TO FORM FOCK OPERATORS=       3.3 SECONDS (       0.4 SEC/ITER)
     FOCK TIME ON FIRST ITERATION=       0.0, LAST ITERATION=       0.6
     TIME TO SOLVE SCF EQUATIONS=       0.0 SECONDS (       0.0 SEC/ITER)

 FINAL R-B3LYP ENERGY IS     -117.1761093778 AFTER   9 ITERATIONS
 DFT EXCHANGE + CORRELATION ENERGY =       -14.8278700339
 TOTAL ELECTRON NUMBER             =        23.9999820504
 ...... END OF RHF CALCULATION ......
 STEP CPU TIME =     3.44 TOTAL CPU TIME =          8.9 (      0.1 MIN)
 TOTAL WALL CLOCK TIME=          9.1 SECONDS, CPU UTILIZATION IS    97.92%
 ..... END OF 1-ELECTRON GRADIENT ......
 STEP CPU TIME =     0.00 TOTAL CPU TIME =          8.9 (      0.1 MIN)
 TOTAL WALL CLOCK TIME=          9.1 SECONDS, CPU UTILIZATION IS    97.81%
 MEMORY FOR GRID POINT CONTRIBUTIONS TO THE DFT GRADIENT=    584845 WORDS.
 STEP CPU TIME =     1.21 TOTAL CPU TIME =         10.2 (      0.2 MIN)
 TOTAL WALL CLOCK TIME=         10.4 SECONDS, CPU UTILIZATION IS    98.07%
 ...... END OF 2-ELECTRON GRADIENT ......
 STEP CPU TIME =     0.02 TOTAL CPU TIME =         10.2 (      0.2 MIN)
 TOTAL WALL CLOCK TIME=         10.4 SECONDS, CPU UTILIZATION IS    98.07%

          NSERCH=  1     ENERGY=    -117.1761094

                                 -----------------------
                                 GRADIENT (HARTREE/BOHR)
                                 -----------------------
        ATOM     ZNUC       DE/DX         DE/DY         DE/DZ
 --------------------------------------------------------------
    1  C            6.0     0.0112701     0.0080546     0.0000000
    2  C            6.0    -0.0084301    -0.0007297     0.0000000
    3  C            6.0    -0.0137764    -0.0105402     0.0000000
    4  H            1.0    -0.0014862     0.0018455     0.0000000
    5  H            1.0     0.0002155    -0.0000723     0.0000000
    6  H            1.0     0.0034830    -0.0000243     0.0000000
    7  H            1.0     0.0029893    -0.0000366    -0.0020027
    8  H            1.0     0.0029893    -0.0000366     0.0020027
    9  H            1.0     0.0027456     0.0015397     0.0000000

          MAXIMUM GRADIENT = 0.0137764    RMS GRADIENT = 0.0047841

 NSERCH:   1  E=     -117.1761093778  GRAD. MAX=  0.0137764  R.M.S.=  0.0047841

          HESSIAN UPDATED USING THE BFGS FORMULA
             ACTUAL ENERGY CHANGE WAS  -0.0004243870
          PREDICTED ENERGY CHANGE WAS  -0.0012284903 RATIO=  0.345
          MIN SEARCH, CORRECT HESSIAN, TRYING PURE NR STEP
               NR STEP HAS LENGTH         =   0.096465
          RADIUS OF STEP TAKEN=   0.09646  CURRENT TRUST RADIUS=   0.15410

 BEGINNING GEOMETRY SEARCH POINT NSERCH=   2 ...

 COORDINATES OF SYMMETRY UNIQUE ATOMS (ANGS)
   ATOM   CHARGE       X              Y              Z
 ------------------------------------------------------------
 C           6.0  -0.3519515363  -0.3121893086   0.0000000000
 C           6.0   0.7781760416  -1.0086315907   0.0000000000
 C           6.0  -0.4146917198   1.2002877799   0.0000000000
 H           1.0  -1.3069498673  -0.8337931148   0.0000000000
 H           1.0   1.7518452465  -0.5242193239   0.0000000000
 H           1.0   0.7860181261  -2.0961166980   0.0000000000
 H           1.0   0.0770524887   1.6113221720  -0.8888048480
 H           1.0  -1.4465512682   1.5620179121   0.0000000000
 COORDINATES OF ALL ATOMS ARE (ANGS)
   ATOM   CHARGE       X              Y              Z
 ------------------------------------------------------------
 C           6.0  -0.3519515363  -0.3121893086   0.0000000000
 C           6.0   0.7781760416  -1.0086315907   0.0000000000
 C           6.0  -0.4146917198   1.2002877799   0.0000000000
 H           1.0  -1.3069498673  -0.8337931148   0.0000000000
 H           1.0   1.7518452465  -0.5242193239   0.0000000000
 H           1.0   0.7860181261  -2.0961166980   0.0000000000
 H           1.0   0.0770524887   1.6113221720   0.8888048480
 H           1.0   0.0770524887   1.6113221720  -0.8888048480
 H           1.0  -1.4465512682   1.5620179121   0.0000000000

          INTERNUCLEAR DISTANCES (ANGS.)
          ------------------------------

                1 C          2 C          3 C          4 H          5 H     

   1 C       0.0000000    1.3274864 *  1.5137778 *  1.0881601 *  2.1144545 *
   2 C       1.3274864 *  0.0000000    2.5104299 *  2.0924432 *  1.0875141 *
   3 C       1.5137778 *  2.5104299 *  0.0000000    2.2211730 *  2.7690806 *
   4 H       1.0881601 *  2.0924432 *  2.2211730 *  0.0000000    3.0744208  
   5 H       2.1144545 *  1.0875141 *  2.7690806 *  3.0744208    0.0000000  
   6 H       2.1159801 *  1.0875134 *  3.5082740    2.4441718 *  1.8449074 *
   7 H       2.1619239 *  2.8540683 *  1.0957809 *  2.9468670 *  2.8557735 *
   8 H       2.1619239 *  2.8540683 *  1.0957809 *  2.9468670 *  2.8557735 *
   9 H       2.1704380 *  3.3996545    1.0934271 *  2.3998748 *  3.8186550  

                6 H          7 H          8 H          9 H     

   1 C       2.1159801 *  2.1619239 *  2.1619239 *  2.1704380 *
   2 C       1.0875134 *  2.8540683 *  2.8540683 *  3.3996545  
   3 C       3.5082740    1.0957809 *  1.0957809 *  1.0934271 *
   4 H       2.4441718 *  2.9468670 *  2.9468670 *  2.3998748 *
   5 H       1.8449074 *  2.8557735 *  2.8557735 *  3.8186550  
   6 H       0.0000000    3.8778485    3.8778485    4.2855939  
   7 H       3.8778485    0.0000000    1.7776097 *  1.7645887 *
   8 H       3.8778485    1.7776097 *  0.0000000    1.7645887 *
   9 H       4.2855939    1.7645887 *  1.7645887 *  0.0000000  

  * ... LESS THAN  3.000

 ...... END OF ONE-ELECTRON INTEGRALS ......
 STEP CPU TIME =     0.00 TOTAL CPU TIME =         10.2 (      0.2 MIN)
 TOTAL WALL CLOCK TIME=         10.4 SECONDS, CPU UTILIZATION IS    97.98%
  ...... END OF TWO-ELECTRON INTEGRALS .....
 STEP CPU TIME =     0.00 TOTAL CPU TIME =         10.2 (      0.2 MIN)
 TOTAL WALL CLOCK TIME=         10.4 SECONDS, CPU UTILIZATION IS    97.88%

          --------------------------
             R-B3LYP SCF CALCULATION
          --------------------------
         DENSITY MATRIX CONVERGENCE THRESHOLD=  2.00E-05
     COARSE -> FINE DFT GRID SWITCH THRESHOLD=  3.00E-04 (SWITCH IN $DFT)
                   HF -> DFT SWITCH THRESHOLD=  5.00E-03 (SWOFF IN $DFT)

 DIRECT SCF CALCULATION, SCHWRZ=T   FDIFF=T,  DIRTHR=  0.00E+00 NITDIR=10

 DFT CODE IS SWITCHING FROM THE FINE GRID NRAD= 96,  NLEB=  590
                      TO THE COARSE GRID NRAD0= 24, NLEB0=  110

                                                                                   NONZERO     BLOCKS
 ITER EX DEM     TOTAL ENERGY        E CHANGE  DENSITY CHANGE    DIIS ERROR      INTEGRALS    SKIPPED
          * * *   INITIATING DIIS PROCEDURE   * * *
   1  0  0     -117.1750337181  -117.1750337181   0.007047605   0.007962499         165579       1717
   2  1  0     -117.1752841927    -0.0002504746   0.000949705   0.000735353         163159       2564
   3  2  0     -117.1752855296    -0.0000013369   0.000567750   0.000551462         160762       3182
   4  3  0     -117.1752865446    -0.0000010150   0.000145063   0.000213086         158771       3506
 DFT CODE IS SWITCHING BACK TO THE FINE GRID
          * * *   INITIATING DIIS PROCEDURE   * * *
   5  4  0     -117.1767422159    -0.0014556712   0.002117106   0.000443481         165576       1719
   6  5  0     -117.1767436390    -0.0000014231   0.000238094   0.000132227         160429       3233
   7  6  0     -117.1767436151     0.0000000239   0.000137946   0.000234901         156043       4045
   8  7  0     -117.1767436839    -0.0000000688   0.000037568   0.000056166         154877       4383
   9  8  0     -117.1767436875    -0.0000000036   0.000007541   0.000006869         151859       5031
  10  9  0     -117.1767436876    -0.0000000001   0.000001005   0.000001432         147224       5836

          -----------------
          DENSITY CONVERGED
          -----------------
     TIME TO FORM FOCK OPERATORS=       3.9 SECONDS (       0.4 SEC/ITER)
     FOCK TIME ON FIRST ITERATION=       0.1, LAST ITERATION=       0.6
     TIME TO SOLVE SCF EQUATIONS=       0.0 SECONDS (       0.0 SEC/ITER)

 FINAL R-B3LYP ENERGY IS     -117.1767436876 AFTER  10 ITERATIONS
 DFT EXCHANGE + CORRELATION ENERGY =       -14.8260551747
 TOTAL ELECTRON NUMBER             =        23.9999832614
 ...... END OF RHF CALCULATION ......
 STEP CPU TIME =     4.06 TOTAL CPU TIME =         14.2 (      0.2 MIN)
 TOTAL WALL CLOCK TIME=         14.5 SECONDS, CPU UTILIZATION IS    98.21%
 ..... END OF 1-ELECTRON GRADIENT ......
 STEP CPU TIME =     0.00 TOTAL CPU TIME =         14.2 (      0.2 MIN)
 TOTAL WALL CLOCK TIME=         14.5 SECONDS, CPU UTILIZATION IS    98.14%
 MEMORY FOR GRID POINT CONTRIBUTIONS TO THE DFT GRADIENT=    584845 WORDS.
 STEP CPU TIME =     1.20 TOTAL CPU TIME =         15.4 (      0.3 MIN)
 TOTAL WALL CLOCK TIME=         15.7 SECONDS, CPU UTILIZATION IS    98.22%
 ...... END OF 2-ELECTRON GRADIENT ......
 STEP CPU TIME =     0.02 TOTAL CPU TIME =         15.5 (      0.3 MIN)
 TOTAL WALL CLOCK TIME=         15.7 SECONDS, CPU UTILIZATION IS    98.22%

          NSERCH=  2     ENERGY=    -117.1767437

                                 -----------------------
                                 GRADIENT (HARTREE/BOHR)
                                 -----------------------
        ATOM     ZNUC       DE/DX         DE/DY         DE/DZ
 --------------------------------------------------------------
    1  C            6.0     0.0041248    -0.0000271     0.0000000
    2  C            6.0    -0.0042744     0.0051559     0.0000000
    3  C            6.0     0.0013292    -0.0035836     0.0000000
    4  H            1.0    -0.0002843     0.0007971     0.0000000
    5  H            1.0     0.0000597    -0.0003163     0.0000000
    6  H            1.0     0.0003947    -0.0012205     0.0000000
    7  H            1.0    -0.0012304    -0.0007711     0.0001087
    8  H            1.0    -0.0012304    -0.0007711    -0.0001087
    9  H            1.0     0.0011112     0.0007368     0.0000000

          MAXIMUM GRADIENT = 0.0051559    RMS GRADIENT = 0.0017739

 NSERCH:   2  E=     -117.1767436876  GRAD. MAX=  0.0051559  R.M.S.=  0.0017739

          HESSIAN UPDATED USING THE BFGS FORMULA
             ACTUAL ENERGY CHANGE WAS  -0.0006343098
          PREDICTED ENERGY CHANGE WAS  -0.0006545604 RATIO=  0.969
          MIN SEARCH, CORRECT HESSIAN, TRYING PURE NR STEP
               NR STEP HAS LENGTH         =   0.058256
          RADIUS OF STEP TAKEN=   0.05826  CURRENT TRUST RADIUS=   0.19293

 BEGINNING GEOMETRY SEARCH POINT NSERCH=   3 ...

 COORDINATES OF SYMMETRY UNIQUE ATOMS (ANGS)
   ATOM   CHARGE       X              Y              Z
 ------------------------------------------------------------
 C           6.0  -0.3525980048  -0.3105341471   0.0000000000
 C           6.0   0.7800356463  -1.0120070341   0.0000000000
 C           6.0  -0.4158401428   1.2065632010   0.0000000000
 H           1.0  -1.3012332560  -0.8430044402   0.0000000000
 H           1.0   1.7505787197  -0.5226739869   0.0000000000
 H           1.0   0.7743669366  -2.0978418699   0.0000000000
 H           1.0   0.0848531664   1.6207081620  -0.8829891230
 H           1.0  -1.4550162318   1.5480819533   0.0000000000
 COORDINATES OF ALL ATOMS ARE (ANGS)
   ATOM   CHARGE       X              Y              Z
 ------------------------------------------------------------
 C           6.0  -0.3525980048  -0.3105341471   0.0000000000
 C           6.0   0.7800356463  -1.0120070341   0.0000000000
 C           6.0  -0.4158401428   1.2065632010   0.0000000000
 H           1.0  -1.3012332560  -0.8430044402   0.0000000000
 H           1.0   1.7505787197  -0.5226739869   0.0000000000
 H           1.0   0.7743669366  -2.0978418699   0.0000000000
 H           1.0   0.0848531664   1.6207081620   0.8829891230
 H           1.0   0.0848531664   1.6207081620  -0.8829891230
 H           1.0  -1.4550162318   1.5480819533   0.0000000000

          INTERNUCLEAR DISTANCES (ANGS.)
          ------------------------------

                1 C          2 C          3 C          4 H          5 H     

   1 C       0.0000000    1.3322624 *  1.5184149 *  1.0878573 *  2.1138485 *
   2 C       1.3322624 *  0.0000000    2.5203517 *  2.0881193 *  1.0869226 *
   3 C       1.5184149 *  2.5203517 *  0.0000000    2.2326326 *  2.7719365 *
   4 H       1.0878573 *  2.0881193 *  2.2326326 *  0.0000000    3.0685775  
   5 H       2.1138485 *  1.0869226 *  2.7719365 *  3.0685775    0.0000000  
   6 H       2.1129408 *  1.0858496 *  3.5122195    2.4254346 *  1.8531442 *
   7 H       2.1681167 *  2.8625404 *  1.0963027 *  2.9615511 *  2.8545400 *
   8 H       2.1681167 *  2.8625404 *  1.0963027 *  2.9615511 *  2.8545400 *
   9 H       2.1609673 *  3.3984574    1.0938565 *  2.3960266 *  3.8162638  

                6 H          7 H          8 H          9 H     

   1 C       2.1129408 *  2.1681167 *  2.1681167 *  2.1609673 *
   2 C       1.0858496 *  2.8625404 *  2.8625404 *  3.3984574  
   3 C       3.5122195    1.0963027 *  1.0963027 *  1.0938565 *
   4 H       2.4254346 *  2.9615511 *  2.9615511 *  2.3960266 *
   5 H       1.8531442 *  2.8545400 *  2.8545400 *  3.8162638  
   6 H       0.0000000    3.8836469    3.8836469    4.2735126  
   7 H       3.8836469    0.0000000    1.7659782 *  1.7765534 *
   8 H       3.8836469    1.7659782 *  0.0000000    1.7765534 *
   9 H       4.2735126    1.7765534 *  1.7765534 *  0.0000000  

  * ... LESS THAN  3.000

 ...... END OF ONE-ELECTRON INTEGRALS ......
 STEP CPU TIME =     0.00 TOTAL CPU TIME =         15.5 (      0.3 MIN)
 TOTAL WALL CLOCK TIME=         15.8 SECONDS, CPU UTILIZATION IS    98.16%
  ...... END OF TWO-ELECTRON INTEGRALS .....
 STEP CPU TIME =     0.00 TOTAL CPU TIME =         15.5 (      0.3 MIN)
 TOTAL WALL CLOCK TIME=         15.8 SECONDS, CPU UTILIZATION IS    98.10%

          --------------------------
             R-B3LYP SCF CALCULATION
          --------------------------
         DENSITY MATRIX CONVERGENCE THRESHOLD=  2.00E-05
[...]
               TOTAL  0.04303479  3.03458280  0.59381872  0.02859684  9.37463830

                            6           7           8           9          10
       FREQUENCY:         3.84        9.77      430.47      598.41      908.18  
        SYMMETRY:         A'          A''         A'          A''         A'  
    REDUCED MASS:      2.59047     2.03202     2.00692     1.30231     2.83449
    IR INTENSITY:      0.00174     0.00147     0.01082     0.40702     0.01243

  1   C            X -0.03295868 -0.00004017  0.12015676  0.00000539 -0.03406305
                   Y  0.04312932 -0.00006621  0.06709724  0.00000250 -0.12002644
                   Z  0.00036722 -0.09300620  0.00000691 -0.13728588  0.00000171
  2   C            X -0.12186860 -0.00002742  0.01377615  0.00000346  0.03394128
                   Y -0.10000347 -0.00004569 -0.11771436 -0.00000259 -0.09982603
                   Z -0.00082789 -0.08893313 -0.00000392  0.03781958  0.00000264
  3   C            X  0.15847773 -0.00006755 -0.08705558 -0.00000077 -0.01757296
                   Y  0.05162632 -0.00006738  0.06873327  0.00000690  0.17786125
                   Z  0.00023503  0.17115521  0.00000039  0.01713581 -0.00000356
  4   H            X -0.09930542 -0.00003067  0.10775452  0.00000494 -0.06781963
                   Y  0.16321512 -0.00008344  0.08008710  0.00000368 -0.06715042
                   Z  0.00152514 -0.29659685 -0.00000083  0.31301448 -0.00000005
  5   H            X -0.06073196 -0.00003619  0.13829862  0.00000785 -0.09715967
                   Y -0.22362121 -0.00002795 -0.37550654 -0.00001170  0.17978003
                   Z -0.00200513  0.10933110  0.00000012 -0.33666207  0.00000184
  6   H            X -0.25939635 -0.00000771 -0.26830689 -0.00000591  0.38786421
                   Y -0.09987788 -0.00004571 -0.12052461 -0.00000279 -0.10192964
                   Z -0.00067694 -0.28339214 -0.00001559  0.60446241 -0.00002457
  7   H            X  0.21172437 -0.10090259 -0.18460766  0.03688165 -0.00020642
                   Y -0.01070907 -0.15855232  0.18147523 -0.23574671  0.14286892
                   Z -0.00038705  0.30174600  0.00193049  0.10896700  0.00554748
  8   H            X  0.20969711  0.10075252 -0.18457154 -0.03689077 -0.00020957
                   Y -0.01095426  0.15843531  0.18144909  0.23576849  0.14288856
                   Z -0.00039191  0.30174593 -0.00192290  0.10896654 -0.00554564
  9   H            X  0.20228841 -0.00007382 -0.16678257 -0.00000381 -0.01173639
                   Y  0.18173435 -0.00008599 -0.16274989 -0.00000175  0.20357907
                   Z  0.00137102  0.11558140 -0.00003166  0.18157577  0.00001130

 TRANS. SAYVETZ    X  0.24968000 -0.00192250 -0.00005549  0.00009079  0.00004479
                   Y -0.06318858 -0.00251430 -0.00006416  0.00009105  0.00005459
                   Z -0.00327705  0.12094988 -0.00000004  0.00002919 -0.00000017
               TOTAL  0.25757259  0.12099129  0.00008483  0.00013185  0.00007061

   ROT. SAYVETZ    X  0.02643539 11.63290642  0.00000098  0.00183741 -0.00000139
                   Y  0.03862539  1.67030428 -0.00000117  0.00274241 -0.00000024
                   Z-14.95127622  0.00214019  0.02834845 -0.00000560 -0.00467666
               TOTAL 14.95134949 11.75220969  0.02834845  0.00330105  0.00467666

                           11          12          13          14          15
       FREQUENCY:       962.88     1008.33     1036.46     1089.39     1205.96  
        SYMMETRY:         A''         A'          A''         A''         A'  
    REDUCED MASS:      1.32392     1.20497     1.05298     1.48929     1.68537
    IR INTENSITY:      1.04623     0.01739     0.50343     0.01308     0.15045

  1   C            X -0.00000089 -0.01683015  0.00000090 -0.00000001  0.07108889
                   Y -0.00000233 -0.02775596  0.00000186  0.00000043  0.10875165
                   Z  0.03031028  0.00000076 -0.04556594  0.11896000  0.00000251
  2   C            X -0.00000033  0.05886817 -0.00000047  0.00000091 -0.01595544
                   Y -0.00000266  0.03016938  0.00000190  0.00000395 -0.08505894
                   Z -0.14280607 -0.00000118  0.00358493 -0.02865802 -0.00000026
  3   C            X -0.00000025 -0.08922603  0.00000317  0.00000416 -0.09728099
                   Y  0.00000267  0.03864648 -0.00000198 -0.00000083 -0.05233671
                   Z  0.02020887 -0.00000206 -0.04256910 -0.12015625 -0.00000372
  4   H            X -0.00000269  0.12922034 -0.00000112  0.00000021 -0.04660708
                   Y  0.00000047 -0.29627789  0.00000629  0.00000113  0.32681563
                   Z  0.00079388  0.00000940  0.70554891 -0.26615853  0.00000389
  5   H            X -0.00000549  0.22243758  0.00000109  0.00000745 -0.15652771
                   Y  0.00000832 -0.31291135 -0.00000163 -0.00001029  0.23059448
                   Z  0.58873424  0.00001529  0.49678474  0.03422293  0.00000065
  6   H            X  0.00001248 -0.28604489 -0.00000563 -0.00001590  0.35424942
                   Y -0.00000259  0.02267108  0.00000194  0.00000376 -0.07777013
                   Z  0.60483383 -0.00000388 -0.36892050  0.04411813 -0.00000238
  7   H            X  0.00336657  0.20414915 -0.00553909 -0.04441502  0.15975739
                   Y  0.09471254 -0.22026500 -0.16460225 -0.47779282 -0.21583424
                   Z -0.02639262 -0.03943166  0.04608934  0.14200361 -0.06133743
  8   H            X -0.00336748  0.20414931  0.00552708  0.04440088  0.15976145
                   Y -0.09470759 -0.22025137  0.16461471  0.47781003 -0.21579624
                   Z -0.02639298  0.03943486  0.04608698  0.14200023  0.06134987
  9   H            X -0.00000048  0.08796717 -0.00000224 -0.00000223  0.03119229
                   Y  0.00000217  0.53812400 -0.00001722 -0.00001853  0.29304424
                   Z -0.04269474  0.00000542  0.08115647  0.25929305  0.00000296

 TRANS. SAYVETZ    X -0.00001470  0.00001937  0.00002314  0.00003587 -0.00001798
                   Y -0.00001449 -0.00001734  0.00002314  0.00003583 -0.00000549
                   Z  0.00003731 -0.00000006  0.00002236  0.00000981  0.00000008
               TOTAL  0.00004264  0.00002600  0.00003964  0.00005164  0.00001880

   ROT. SAYVETZ    X -0.00189442 -0.00000071  0.00029179 -0.00014272  0.00000039
                   Y -0.00310666 -0.00000033  0.00135956 -0.00093970 -0.00000028
                   Z  0.00000115 -0.00072535 -0.00000172 -0.00000217 -0.00055239
               TOTAL  0.00363871  0.00072535  0.00139052  0.00095048  0.00055239

                           16          17          18          19          20
       FREQUENCY:      1377.41     1459.05     1501.63     1556.15     1564.54  
        SYMMETRY:         A'          A'          A'          A'          A'' 
    REDUCED MASS:      1.24500     1.17384     1.20876     1.05125     1.04348
    IR INTENSITY:      0.00553     0.12227     0.03010     0.17831     0.16002

  1   C            X -0.07066326 -0.00198110 -0.07403939 -0.00677520  0.00000121
                   Y -0.04113095 -0.00118814  0.08964723 -0.01594013  0.00000225
                   Z -0.00000056 -0.00000003  0.00000008 -0.00000039 -0.01711677
  2   C            X  0.09931945  0.00276527 -0.02345666 -0.01909443  0.00000001
                   Y  0.02055338 -0.00560711 -0.00521461  0.01930925 -0.00000084
                   Z  0.00000004  0.00000000 -0.00000001  0.00000005  0.00191142
  3   C            X -0.00990095 -0.00459060  0.02437995 -0.04931817  0.00000080
                   Y -0.01614306 -0.11314105 -0.02079767  0.01697806 -0.00000056
                   Z  0.00000065 -0.00000000  0.00000002 -0.00000090 -0.05302997
  4   H            X -0.45421790  0.02617411  0.10697269 -0.00696874  0.00000368
                   Y  0.65308024 -0.04941898 -0.25245401 -0.01655349 -0.00000134
                   Z -0.00000218 -0.00000007  0.00000024 -0.00000025  0.00270672
  5   H            X  0.25679153 -0.02467646  0.24103712  0.03916634 -0.00000188
                   Y -0.28910115  0.04121358 -0.49919895 -0.09830163  0.00000322
                   Z  0.00000049  0.00000001 -0.00000006 -0.00000008 -0.00734620
  6   H            X  0.02125795 -0.03073379  0.64441582  0.07542425  0.00000015
                   Y  0.00741200 -0.00374144 -0.02308526  0.01865456 -0.00000076
                   Z  0.00000033  0.00000004 -0.00000003  0.00000021  0.01012088
  7   H            X -0.02492510 -0.04767484 -0.07213416  0.47738680 -0.37675839
                   Y  0.01536545  0.49478450  0.01585241  0.13907848  0.29389427
                   Z -0.00607783 -0.23099852  0.03364766 -0.33732031  0.05245855
  8   H            X -0.02492397 -0.04767433 -0.07213539  0.47740112  0.37674061
                   Y  0.01535303  0.49478384  0.01585458  0.13906569 -0.29390176
                   Z  0.00607465  0.23099857 -0.03364748  0.33732193  0.05244532
  9   H            X  0.00269921  0.16989564  0.02242864 -0.16713161  0.00000315
                   Y  0.03512089  0.45043399 -0.01466561 -0.42419040  0.00000782
                   Z  0.00000303  0.00000059 -0.00000141  0.00001373  0.70208335

 TRANS. SAYVETZ    X -0.00000287 -0.00001227  0.00000388  0.00003006  0.00001153
                   Y  0.00000416 -0.00000552 -0.00000646  0.00002372  0.00001173
                   Z  0.00000001  0.00000022 -0.00000001  0.00000040  0.00000236
               TOTAL  0.00000506  0.00001346  0.00000753  0.00003829  0.00001662

   ROT. SAYVETZ    X  0.00000054  0.00000080  0.00000012  0.00000081  0.00111977
                   Y  0.00000040  0.00000019 -0.00000005  0.00000048  0.00220240
                   Z -0.00149144 -0.00440231  0.00255595  0.00287823 -0.00000031
               TOTAL  0.00149144  0.00440231  0.00255595  0.00287823  0.00247072

                           21          22          23          24          25
       FREQUENCY:      1716.55     3045.88     3093.89     3118.22     3143.50  
        SYMMETRY:         A'          A'          A''         A'          A'  
    REDUCED MASS:      3.87120     1.03526     1.09872     1.09605     1.06004
    IR INTENSITY:      0.15124     0.38256     0.43304     0.30311     0.32457

  1   C            X -0.14509898  0.00057545 -0.00000031  0.01837209 -0.01249172
                   Y  0.12143995  0.00003198 -0.00000005  0.00879902 -0.01377534
                   Z -0.00000001  0.00000000 -0.00066463  0.00000001 -0.00000000
  2   C            X  0.14736808 -0.00098777  0.00000001  0.00242481 -0.05734542
                   Y -0.09745559  0.00026775  0.00000004 -0.00311056  0.02639315
                   Z  0.00000000  0.00000000  0.00039393 -0.00000000  0.00000000
  3   C            X  0.01275485  0.01458793 -0.00000006 -0.08281918 -0.01225747
                   Y -0.01052323  0.04686747 -0.00000001  0.00577589 -0.00007109
                   Z  0.00000015 -0.00000004 -0.08675106 -0.00000014  0.00000022
  4   H            X -0.00171613 -0.00492381  0.00000601 -0.22207250  0.21227219
                   Y -0.18771451 -0.00221472  0.00000324 -0.11907320  0.11621692
                   Z -0.00000027 -0.00000000 -0.00450996  0.00000008 -0.00000007
  5   H            X -0.01000135  0.01368678 -0.00000005 -0.03291220  0.63487530
                   Y  0.26750627  0.00889375  0.00000001 -0.01881545  0.32310418
                   Z  0.00000011 -0.00000000 -0.00280774 -0.00000005  0.00000006
  6   H            X -0.21341277 -0.00215301  0.00000001  0.00149657 -0.01481875
                   Y -0.11510021 -0.01354836 -0.00000071  0.06219093 -0.59591477
                   Z -0.00000001  0.00000000  0.00106610  0.00000002 -0.00000002
  7   H            X  0.03760615 -0.28458373  0.31800243  0.09918648  0.01923279
                   Y  0.00922073 -0.21974792  0.25189038  0.09939269  0.02045697
                   Z -0.02154079 -0.51776254  0.53510335  0.22317313  0.04135339
  8   H            X  0.03760471 -0.28458408 -0.31800203  0.09918587  0.01923399
                   Y  0.00922064 -0.21974817 -0.25189007  0.09939223  0.02045796
                   Z  0.02154031  0.51776310  0.53510252 -0.22317164 -0.04135591
  9   H            X -0.02898800  0.39377011  0.00000031  0.79360477  0.10669168
                   Y -0.14341975 -0.11524608 -0.00000010 -0.25959138 -0.03370863
                   Z -0.00000095 -0.00000003 -0.02780291  0.00000002 -0.00000001

 TRANS. SAYVETZ    X -0.00001984 -0.00000121  0.00000239  0.00000019  0.00000067
                   Y -0.00000760  0.00000027  0.00000244 -0.00000016  0.00000438
                   Z  0.00000007  0.00000002 -0.00000188  0.00000001  0.00000000
               TOTAL  0.00002125  0.00000124  0.00000390  0.00000025  0.00000443

   ROT. SAYVETZ    X  0.00000004  0.00000002 -0.00001507 -0.00000005 -0.00000004
                   Y  0.00000014 -0.00000002  0.00022187 -0.00000003  0.00000001
                   Z  0.00206573  0.00033396 -0.00000036  0.00013544 -0.00012019
               TOTAL  0.00206573  0.00033396  0.00022238  0.00013544  0.00012019

                           26          27
       FREQUENCY:      3154.91     3223.92  
        SYMMETRY:         A'          A'  
    REDUCED MASS:      1.09208     1.11312
    IR INTENSITY:      0.25643     0.49581

  1   C            X -0.06918573 -0.01551130
                   Y -0.03146235 -0.00776243
                   Z -0.00000001 -0.00000000
  2   C            X  0.02835615 -0.03904048
                   Y  0.00555300 -0.08232143
                   Z  0.00000000  0.00000000
  3   C            X -0.01998031 -0.00167757
                   Y  0.00280291  0.00103680
                   Z  0.00000065  0.00000008
  4   H            X  0.76483143  0.15626049
                   Y  0.41597488  0.08270828
                   Z -0.00000032 -0.00000007
  5   H            X -0.28345924  0.50048455
                   Y -0.14106892  0.23279894
                   Z  0.00000021  0.00000005
  6   H            X  0.00419748 -0.00717212
                   Y  0.02487333  0.74384109
                   Z -0.00000007 -0.00000002
  7   H            X  0.02123533  0.00050795
                   Y  0.02208149  0.00402649
                   Z  0.04871106  0.00434159
  8   H            X  0.02123866  0.00050822
                   Y  0.02208422  0.00402673
                   Z -0.04871843 -0.00434245
  9   H            X  0.19600886  0.01892794
                   Y -0.06882074 -0.00712977
                   Z -0.00000007 -0.00000004

 TRANS. SAYVETZ    X -0.00000053  0.00000365
                   Y -0.00000013  0.00000366
                   Z  0.00000000  0.00000000
               TOTAL  0.00000054  0.00000517

   ROT. SAYVETZ    X  0.00000005  0.00000002
                   Y -0.00000014  0.00000001
                   Z -0.00011237  0.00030445
               TOTAL  0.00011237  0.00030445

 REFERENCE ON SAYVETZ CONDITIONS - A. SAYVETZ, J.CHEM.PHYS., 7, 383-389(1939).

 NOTE - THE MODES J,K ARE ORTHONORMALIZED ACCORDING TO
 SUM ON I   M(I) * (X(I,J)*X(I,K) + Y(I,J)*Y(I,K) + Z(I,J)*Z(I,K)) = DELTA(J,K)

  MODE FREQ(CM**-1)  SYMMETRY  RED. MASS  IR INTENS.
     1     208.242    A''      1.098478    0.015396
     2       0.778    A''      4.016551    0.000044
     3       0.151    A'       4.705286    0.000002
     4       0.040    A'       4.672481    0.000000
     5       2.222    A''      1.881884    0.000477
     6       3.844    A'       2.590474    0.001743
     7       9.769    A''      2.032021    0.001467
     8     430.474    A'       2.006922    0.010819
     9     598.414    A''      1.302308    0.407015
    10     908.176    A'       2.834486    0.012434
    11     962.881    A''      1.323921    1.046232
    12    1008.327    A'       1.204969    0.017394
    13    1036.465    A''      1.052980    0.503429
    14    1089.392    A''      1.489286    0.013085
    15    1205.957    A'       1.685370    0.150446
    16    1377.406    A'       1.244996    0.005533
    17    1459.055    A'       1.173841    0.122268
    18    1501.628    A'       1.208760    0.030095
    19    1556.149    A'       1.051250    0.178307
    20    1564.541    A''      1.043484    0.160021
    21    1716.550    A'       3.871197    0.151240
    22    3045.881    A'       1.035259    0.382563
    23    3093.889    A''      1.098723    0.433039
    24    3118.220    A'       1.096051    0.303114
    25    3143.499    A'       1.060040    0.324571
    26    3154.912    A'       1.092077    0.256427
    27    3223.920    A'       1.113121    0.495814

     -------------------------------
     THERMOCHEMISTRY AT T=  298.15 K
     -------------------------------

 USING IDEAL GAS, RIGID ROTOR, HARMONIC NORMAL MODE APPROXIMATIONS.
 P=  1.01325E+05 PASCAL.
 ALL FREQUENCIES ARE SCALED BY   1.00000
 THE MOMENTS OF INERTIA ARE (IN AMU*BOHR**2)
             39.17467           196.03174           223.89960
 THE ROTATIONAL SYMMETRY NUMBER IS  1.0
 THE ROTATIONAL CONSTANTS ARE (IN GHZ)
     46.02689     9.19794     8.05311
   1 IMAGINARY FREQUENCY VIBRATION(S) IS(ARE) EXCLUDED
     FROM THE FOLLOWING THERMOCHEMICAL ANALYSIS.
      8 -     27 VIBRATIONAL MODES ARE USED IN THERMOCHEMISTRY.
 THE HARMONIC ZERO POINT ENERGY IS (SCALED BY   1.000)
        0.080182 HARTREE/MOLECULE    17597.868383 CM**-1/MOLECULE 
       50.314881 KCAL/MOL              210.517462 KJ/MOL

               Q               LN Q
 ELEC.     1.00000E+00       0.000000
 TRANS.    1.07166E+07      16.187301
 ROT.      1.48434E+04       9.605312
 VIB.      1.27157E+00       0.240252
 TOT.      2.02269E+11      26.032865

              E         H         G         CV        CP        S
           KJ/MOL    KJ/MOL    KJ/MOL   J/MOL-K   J/MOL-K   J/MOL-K
 ELEC.      0.000     0.000     0.000     0.000     0.000     0.000
 TRANS.     3.718     6.197   -40.127    12.472    20.786   155.374
 ROT.       3.718     3.718   -23.811    12.472    12.472    92.334
 VIB.     212.290   212.290   209.922    20.821    20.821     7.942
 TOTAL    219.727   222.206   145.984    45.764    54.079   255.650
 VIB. THERMAL CORRECTION E(T)-E(0) = H(T)-H(0) =      1772.373 J/MOL

              E         H         G         CV        CP        S
         KCAL/MOL  KCAL/MOL  KCAL/MOL CAL/MOL-K CAL/MOL-K CAL/MOL-K
 ELEC.      0.000     0.000     0.000     0.000     0.000     0.000
 TRANS.     0.889     1.481    -9.591     2.981     4.968    37.135
 ROT.       0.889     0.889    -5.691     2.981     2.981    22.068
 VIB.      50.738    50.738    50.173     4.976     4.976     1.898
 TOTAL     52.516    53.108    34.891    10.938    12.925    61.102
 VIB. THERMAL CORRECTION E(T)-E(0) = H(T)-H(0) =       423.607 CAL/MOL
 ......END OF NORMAL COORDINATE ANALYSIS......
 STEP CPU TIME =     0.00 TOTAL CPU TIME =        318.0 (      5.3 MIN)
 TOTAL WALL CLOCK TIME=        322.0 SECONDS, CPU UTILIZATION IS    98.74%
                656798  WORDS OF DYNAMIC MEMORY USED
 EXECUTION OF GAMESS TERMINATED NORMALLY Sat Oct 29 04:58:59 2022
 DDI: 263640 bytes (0.3 MB / 0 MWords) used by master data server.

 ----------------------------------------
 CPU timing information for all processes
 ========================================
 0: 315.239 + 2.754 = 317.994
 ----------------------------------------
 ddikick.x: exited gracefully.
----- accounting info -----
Files used on the master node chemcompute-node-0.novalocal were:
-rw-r--r--. 1 chemcomp chemcomp      884 Oct 29 04:53 /scratch/141027/483061.F05
-rw-rw-r--. 1 chemcomp chemcomp 70451200 Oct 29 04:58 /scratch/141027/483061.F10
-rw-rw-r--. 1 chemcomp chemcomp  4612720 Oct 29 04:58 /scratch/141027/483061.F22
Sat Oct 29 04:59:02 UTC 2022
0.099u 0.047s 5:25.40 0.0%	0+0k 8+208io 0pf+0w
Finishing Up...
Looking for IR data...
Looking for Raman data...
vibramans not found
Looking for thermodynamics data...
Looking for UV-Vis data...
chemcompute.org
{'UTCtimestamp': '2022-10-29T04:59:04.721778', 'cluster': 'jetstream2', 'clusterJobNumber': '141027', 'status': 'COMPLETE', 'nodeList': 'chemcompute-node-0'}
141027
